version 3
run Experimentos-959-20260421-18:34:24-13560
attr configname Experimentos
attr datetime 20260421-18:34:24
attr datetimef 20260421-183424
attr experiment Experimentos
attr inifile TwoQueues.ini
attr iterationvars "$p=0.7, $q=0.3, $Y=30, $m=5"
attr iterationvarsd p=0.7/q=0.3/Y=30/m=5
attr iterationvarsf p=0.7,q=0.3,Y=30,m=5-
attr measurement "$p=0.7, $q=0.3, $Y=30, $m=5"
attr network TwoQueues
attr processid 13560
attr repetition 19
attr replication #19
attr resultdir results
attr runnumber 959
attr seedset 959
itervar Y 30
itervar m 5
itervar p 0.7
itervar q 0.3
config description "Barrido de parametros"
config **.source1.p 0.7
config **.source2.q 0.3
config **.serverWithMaintenance.Y 30
config **.serverWithMaintenance.m 5
config network TwoQueues
config cpu-time-limit 5000s
config real-time-limit 5000s
config sim-time-limit 5000s
config warmup-period 400s
config repeat 20
config **.source1.p 0.6
config **.source1.q 0.2
config **.source2.p 0.6
config **.source2.q 0.2
config **.serverWithMaintenance.Y 10
config **.serverWithMaintenance.m 2
config output-scalar-file results.sca
config output-vector-file results.vec
config **.delay1.vector-recording true
config **.delay2.vector-recording true
config **.throughput1.vector-recording true
config **.throughput2.vector-recording true
config **.queue1.qlen.vector-recording true
config **.queue2.qlen.vector-recording true

vector 0 TwoQueues.serverWithMaintenance residenceTime2:vector ETV
attr recordingmode vector
attr source delay2
attr title "Residence Time Class 2"
vector 1 TwoQueues.serverWithMaintenance throughputStats2:vector ETV
attr recordingmode vector
attr source throughput2
attr title "Throughput Class 2"
vector 2 TwoQueues.queue2 queueLengthStats:vector ETV
attr recordingmode vector
attr source qlen
attr title "Average Queue Length"
vector 3 TwoQueues.queue1 queueLengthStats:vector ETV
attr recordingmode vector
attr source qlen
attr title "Average Queue Length"
vector 4 TwoQueues.server residenceTime1:vector ETV
attr recordingmode vector
attr source delay1
attr title "Residence Time Class 1"
vector 5 TwoQueues.server throughputStats1:vector ETV
attr recordingmode vector
attr source throughput1
attr title "Throughput Class 1"
2	2304	403	1
2	2310	405	0
2	2322	407	1
2	2322	407	0
2	2338	409	1
2	2338	409	0
2	2343	410	1
2	2346	410	0
2	2353	411	1
2	2357	411	0
2	2366	413	1
2	2366	413	0
2	2371	414	1
2	2372	414	2
2	2374	414	1
2	2381	415	0
2	2475	430	1
2	2475	430	0
2	2517	441	1
2	2517	441	0
2	2522	442	1
2	2524	442	0
2	2535	445	1
2	2535	445	0
2	2544	447	1
2	2544	447	0
2	2558	449	1
2	2558	449	0
2	2569	452	1
2	2569	452	0
2	2606	459	1
2	2606	459	0
2	2607	459	1
2	2615	460	0
2	2658	469	1
2	2658	469	0
2	2671	473	1
2	2671	473	0
2	2703	484	1
2	2703	484	0
2	2712	486	1
2	2712	486	0
2	2723	489	1
2	2723	489	0
2	2756	498	1
2	2756	498	0
2	2761	499	1
2	2765	499	0
2	2772	500	1
2	2776	500	0
2	2789	502	1
2	2789	502	0
2	2812	506	1
2	2812	506	0
2	2813	506	1
2	2818	507	2
2	2820	507	1
2	2825	508	2
2	2827	508	1
2	2833	509	0
2	2853	513	1
2	2858	514	2
2	2859	514	3
2	2866	515	2
2	2879	516	1
2	2889	517	0
2	2910	522	1
2	2910	522	0
2	2919	524	1
2	2919	524	0
2	2924	525	1
2	2926	525	0
2	2944	530	1
2	2944	530	0
2	2945	530	1
2	2953	531	0
2	3015	547	1
2	3015	547	0
2	3038	552	1
2	3038	552	0
2	3039	552	1
2	3047	553	0
2	3060	557	1
2	3060	557	0
2	3065	558	1
2	3067	558	0
2	3078	561	1
2	3078	561	0
2	3095	567	1
2	3095	567	0
2	3108	571	1
2	3108	571	0
2	3113	572	1
2	3115	572	0
2	3189	589	1
2	3189	589	0
2	3194	590	1
2	3196	590	0
2	3201	591	1
2	3203	591	0
2	3222	598	1
2	3222	598	0
2	3246	605	1
2	3246	605	0
2	3261	608	1
2	3261	608	0
2	3295	617	1
2	3295	617	0
2	3300	618	1
2	3303	618	0
2	3331	625	1
2	3331	625	0
2	3332	625	1
2	3337	626	2
2	3339	626	1
2	3344	627	2
2	3346	627	1
2	3352	628	0
2	3397	638	1
2	3397	638	0
2	3435	649	1
2	3435	649	0
2	3453	653	1
2	3453	653	0
2	3470	655	1
2	3470	655	0
2	3481	657	1
2	3481	657	0
2	3501	662	1
2	3501	662	0
2	3519	664	1
2	3519	664	0
2	3551	668	1
2	3551	668	0
2	3552	668	1
2	3560	669	0
2	3565	670	1
2	3569	670	0
2	3597	676	1
2	3597	676	0
2	3643	684	1
2	3643	684	0
2	3644	684	1
2	3653	685	0
2	3675	689	1
2	3675	689	0
2	3697	695	1
2	3697	695	0
2	3702	696	1
2	3703	696	2
2	3705	696	1
2	3710	697	2
2	3712	697	1
2	3719	698	0
2	3726	699	1
2	3731	699	0
2	3774	704	1
2	3774	704	0
2	3823	711	1
2	3823	711	0
2	3833	712	1
2	3836	712	0
2	3853	714	1
2	3853	714	0
2	3879	717	1
2	3879	717	0
2	3922	726	1
2	3922	726	0
2	3932	727	1
2	3935	727	0
2	3944	728	1
2	3947	728	0
2	3985	735	1
2	3985	735	0
2	4001	737	1
2	4001	737	0
2	4034	742	1
2	4034	742	0
2	4044	743	1
2	4046	743	0
2	4080	751	1
2	4080	751	0
2	4085	752	1
2	4087	752	0
2	4092	753	1
2	4094	753	0
2	4103	755	1
2	4103	755	0
2	4108	756	1
2	4110	756	0
2	4115	757	1
2	4117	757	0
2	4122	758	1
2	4123	758	2
2	4124	758	3
2	4125	758	4
2	4127	758	3
2	4133	759	2
2	4139	760	1
2	4149	761	0
2	4176	765	1
2	4176	765	0
2	4192	767	1
2	4192	767	0
2	4193	767	1
2	4194	767	2
2	4200	768	1
2	4209	769	0
2	4225	771	1
2	4225	771	0
2	4242	773	1
2	4242	773	0
2	4243	773	1
2	4253	774	0
2	4260	775	1
2	4264	775	0
2	4271	776	1
2	4276	776	0
2	4303	785	1
2	4303	785	0
2	4320	787	1
2	4320	787	0
2	4339	789	1
2	4339	789	0
2	4350	791	1
2	4350	791	0
2	4362	793	1
2	4362	793	0
2	4369	794	1
2	4371	794	0
2	4382	797	1
2	4382	797	0
2	4405	801	1
2	4405	801	0
2	4416	804	1
2	4416	804	0
2	4433	806	1
2	4433	806	0
2	4470	811	1
2	4470	811	0
2	4471	811	1
2	4476	812	2
2	4480	813	3
2	4495	817	2
2	4500	818	3
2	4502	818	2
2	4507	819	3
2	4509	819	2
2	4515	820	1
2	4521	821	0
2	4526	822	1
2	4532	822	0
2	4553	825	1
2	4553	825	0
2	4577	830	1
2	4577	830	0
2	4578	830	1
2	4579	830	2
2	4586	831	3
2	4587	831	4
2	4589	831	3
2	4596	832	2
2	4606	833	1
2	4612	834	0
2	4627	837	1
2	4627	837	0
2	4636	838	1
2	4639	838	0
2	4708	852	1
2	4708	852	0
2	4709	852	1
2	4718	853	2
2	4720	853	1
2	4729	854	2
2	4730	854	3
2	4733	854	2
2	4745	855	1
2	4755	856	0
2	4779	860	1
2	4779	860	0
2	4780	860	1
2	4785	861	2
2	4787	861	1
2	4793	862	0
2	4798	863	1
2	4801	863	0
2	4808	864	1
2	4809	864	2
2	4810	864	3
2	4815	864	2
2	4822	865	3
2	4826	865	2
2	4831	866	3
2	4834	866	2
2	4844	867	1
2	4849	868	2
2	4851	868	1
2	4858	869	0
2	4865	870	1
2	4869	870	0
2	4874	871	1
2	4897	876	0
2	4931	884	1
2	4931	884	0
2	4953	890	1
2	4953	890	0
2	4963	891	1
2	4964	891	2
2	4966	891	1
2	4976	892	0
2	5002	896	1
2	5002	896	0
2	5003	896	1
2	5010	897	0
2	5025	900	1
2	5025	900	0
2	5035	901	1
2	5037	901	0
2	5065	906	1
2	5065	906	0
2	5109	912	1
2	5109	912	0
2	5110	912	1
2	5118	913	2
2	5121	913	1
2	5130	914	2
2	5132	914	1
2	5139	915	2
2	5143	915	1
2	5153	916	0
2	5188	924	1
2	5188	924	0
2	5227	932	1
2	5227	932	0
2	5238	934	1
2	5238	934	0
2	5246	935	1
2	5248	935	0
2	5259	937	1
2	5259	937	0
2	5276	939	1
2	5276	939	0
2	5317	944	1
2	5317	944	0
2	5329	945	1
2	5331	945	0
2	5388	955	1
2	5388	955	0
2	5389	955	1
2	5399	956	2
2	5401	956	1
2	5410	957	0
2	5438	964	1
2	5438	964	0
2	5439	964	1
2	5445	965	0
2	5462	971	1
2	5462	971	0
2	5470	972	1
2	5472	972	0
2	5482	974	1
2	5483	974	2
2	5506	978	1
2	5507	978	2
2	5515	979	1
2	5521	980	0
2	5530	982	1
2	5530	982	0
2	5564	989	1
2	5564	989	0
2	5565	989	1
2	5571	990	0
2	5591	995	1
2	5591	995	0
2	5592	995	1
2	5597	996	2
2	5601	996	1
2	5611	997	0
2	5627	999	1
2	5627	999	0
2	5650	1003	1
2	5650	1003	0
2	5666	1005	1
2	5666	1005	0
2	5674	1006	1
2	5676	1006	0
2	5707	1011	1
2	5707	1011	0
2	5736	1015	1
2	5736	1015	0
2	5737	1015	1
2	5744	1016	0
2	5773	1022	1
2	5773	1022	0
2	5784	1024	1
2	5784	1024	0
2	5805	1027	1
2	5805	1027	0
2	5824	1029	1
2	5824	1029	0
2	5848	1032	1
2	5848	1032	0
2	5870	1037	1
2	5870	1037	0
2	5883	1041	1
2	5883	1041	0
2	5884	1041	1
2	5891	1042	0
2	5913	1046	1
2	5913	1046	0
2	5918	1047	1
2	5920	1047	0
2	5980	1057	1
2	5980	1057	0
2	5991	1060	1
2	5991	1060	0
2	6013	1066	1
2	6013	1066	0
2	6018	1067	1
2	6020	1067	0
2	6025	1068	1
2	6026	1068	2
2	6030	1069	3
2	6042	1072	4
2	6046	1073	3
2	6047	1073	4
2	6053	1074	3
2	6059	1075	2
2	6064	1076	3
2	6066	1076	2
2	6072	1077	1
2	6078	1078	0
2	6115	1085	1
2	6115	1085	0
2	6116	1085	1
2	6128	1086	0
2	6137	1087	1
2	6139	1087	0
2	6156	1092	1
2	6156	1092	0
2	6157	1092	1
2	6163	1093	0
2	6185	1097	1
2	6185	1097	0
2	6186	1097	1
2	6195	1098	2
2	6197	1098	1
2	6204	1099	2
2	6206	1099	1
2	6211	1100	2
2	6213	1100	1
2	6220	1101	0
2	6265	1109	1
2	6265	1109	0
2	6282	1111	1
2	6282	1111	0
2	6283	1111	1
2	6296	1112	0
2	6324	1117	1
2	6324	1117	0
2	6337	1120	1
2	6337	1120	0
2	6338	1120	1
2	6348	1121	2
2	6349	1121	3
2	6351	1121	2
2	6361	1122	1
2	6370	1123	2
2	6373	1123	1
2	6383	1124	0
2	6396	1127	1
2	6396	1127	0
2	6412	1130	1
2	6412	1130	0
2	6417	1131	1
2	6419	1131	0
2	6442	1135	1
2	6442	1135	0
2	6457	1140	1
2	6457	1140	0
2	6465	1141	1
2	6489	1146	0
2	6547	1162	1
2	6547	1162	0
2	6548	1162	1
2	6554	1163	0
2	6583	1170	1
2	6583	1170	0
2	6584	1170	1
2	6592	1171	0
2	6599	1172	1
2	6603	1172	0
2	6697	1187	1
2	6697	1187	0
2	6720	1191	1
2	6720	1191	0
2	6751	1199	1
2	6751	1199	0
2	6779	1203	1
2	6779	1203	0
2	6806	1207	1
2	6806	1207	0
2	6825	1209	1
2	6825	1209	0
2	6845	1211	1
2	6845	1211	0
2	6923	1226	1
2	6923	1226	0
2	6946	1229	1
2	6946	1229	0
2	6961	1234	1
2	6961	1234	0
2	6975	1236	1
2	6975	1236	0
2	6980	1237	1
2	6982	1237	0
2	6991	1239	1
2	6991	1239	0
2	7007	1242	1
2	7007	1242	0
2	7017	1243	1
2	7019	1243	0
2	7028	1244	1
2	7030	1244	0
2	7039	1245	1
2	7041	1245	0
2	7066	1249	1
2	7066	1249	0
2	7103	1255	1
2	7103	1255	0
2	7130	1261	1
2	7130	1261	0
2	7162	1267	1
2	7162	1267	0
2	7173	1268	1
2	7175	1268	0
2	7205	1272	1
2	7205	1272	0
2	7228	1276	1
2	7228	1276	0
2	7249	1279	1
2	7250	1279	2
2	7261	1281	3
2	7265	1282	2
2	7272	1283	1
2	7279	1284	2
2	7285	1284	1
2	7295	1285	0
2	7302	1286	1
2	7306	1286	0
2	7339	1292	1
2	7339	1292	0
2	7368	1297	1
2	7368	1297	0
2	7421	1309	1
2	7421	1309	0
2	7441	1312	1
2	7441	1312	0
2	7452	1314	1
2	7452	1314	0
2	7479	1320	1
2	7479	1320	0
2	7498	1323	1
2	7498	1323	0
2	7533	1333	1
2	7533	1333	0
2	7551	1337	1
2	7551	1337	0
2	7562	1339	1
2	7562	1339	0
2	7589	1345	1
2	7589	1345	0
2	7594	1346	1
2	7595	1346	2
2	7597	1346	1
2	7603	1347	0
2	7624	1351	1
2	7624	1351	0
2	7631	1352	1
2	7633	1352	0
2	7649	1356	1
2	7649	1356	0
2	7669	1360	1
2	7669	1360	0
2	7677	1361	1
2	7680	1361	0
2	7705	1368	1
2	7705	1368	0
2	7720	1371	1
2	7720	1371	0
2	7791	1382	1
2	7791	1382	0
2	7885	1399	1
2	7885	1399	0
2	7928	1408	1
2	7928	1408	0
2	7944	1410	1
2	7944	1410	0
2	7965	1414	1
2	7965	1414	0
2	7984	1418	1
2	7987	1419	2
2	7994	1420	1
2	8006	1421	0
2	8050	1430	1
2	8050	1430	0
2	8069	1433	1
2	8069	1433	0
2	8080	1435	1
2	8080	1435	0
2	8091	1438	1
2	8091	1438	0
2	8130	1445	1
2	8130	1445	0
2	8141	1448	1
2	8141	1448	0
2	8146	1449	1
2	8147	1449	2
2	8149	1449	1
2	8156	1450	0
2	8178	1455	1
2	8178	1455	0
2	8185	1456	1
2	8186	1456	2
2	8188	1456	1
2	8194	1457	0
2	8229	1462	1
2	8229	1462	0
2	8238	1463	1
2	8239	1463	2
2	8241	1463	1
2	8251	1464	0
2	8258	1465	1
2	8260	1465	0
2	8265	1466	1
2	8268	1466	0
2	8284	1468	1
2	8284	1468	0
2	8301	1473	1
2	8301	1473	0
2	8310	1474	1
2	8312	1474	0
2	8321	1475	1
2	8323	1475	0
2	8336	1478	1
2	8336	1478	0
2	8344	1479	1
2	8346	1479	0
2	8357	1481	1
2	8357	1481	0
2	8358	1481	1
2	8365	1482	0
2	8382	1486	1
2	8382	1486	0
2	8408	1489	1
2	8408	1489	0
2	8425	1491	1
2	8425	1491	0
2	8432	1492	1
2	8434	1492	0
2	8449	1495	1
2	8455	1496	2
2	8460	1497	3
2	8464	1498	2
2	8470	1499	1
2	8475	1500	2
2	8478	1500	1
2	8488	1501	0
2	8523	1511	1
2	8523	1511	0
2	8540	1513	1
2	8540	1513	0
2	8603	1526	1
2	8603	1526	0
2	8629	1530	1
2	8629	1530	0
2	8671	1541	1
2	8671	1541	0
2	8678	1542	1
2	8679	1542	2
2	8682	1542	1
2	8689	1543	2
2	8693	1543	1
2	8700	1544	0
2	8726	1550	1
2	8726	1550	0
2	8727	1550	1
2	8734	1551	0
2	8749	1554	1
2	8749	1554	0
2	8754	1555	1
2	8756	1555	0
2	8761	1556	1
2	8764	1556	0
2	8779	1559	1
2	8779	1559	0
2	8788	1561	1
2	8788	1561	0
2	8799	1564	1
2	8799	1564	0
2	8812	1568	1
2	8812	1568	0
2	8837	1573	1
2	8837	1573	0
2	8848	1576	1
2	8848	1576	0
2	8876	1580	1
2	8876	1580	0
2	8889	1582	1
2	8889	1582	0
2	8890	1582	1
2	8903	1583	0
2	8912	1584	1
2	8914	1584	0
2	8991	1595	1
2	8991	1595	0
2	9003	1597	1
2	9003	1597	0
2	9023	1601	1
2	9023	1601	0
2	9031	1603	1
2	9032	1603	2
2	9033	1603	3
2	9047	1605	4
2	9063	1607	3
2	9064	1607	4
2	9065	1607	5
2	9075	1608	4
2	9083	1609	3
2	9089	1610	2
2	9095	1611	1
2	9101	1612	0
2	9106	1613	1
2	9108	1613	0
2	9121	1617	1
2	9121	1617	0
2	9126	1618	1
2	9130	1618	0
2	9200	1629	1
2	9200	1629	0
2	9201	1629	1
2	9202	1629	2
2	9208	1630	1
2	9215	1631	0
2	9247	1636	1
2	9247	1636	0
2	9260	1639	1
2	9260	1639	0
2	9269	1641	1
2	9269	1641	0
2	9287	1645	1
2	9287	1645	0
2	9303	1648	1
2	9303	1648	0
2	9339	1657	1
2	9339	1657	0
2	9352	1660	1
2	9352	1660	0
2	9361	1662	1
2	9361	1662	0
2	9372	1665	1
2	9372	1665	0
2	9383	1668	1
2	9383	1668	0
2	9425	1679	1
2	9425	1679	0
2	9451	1683	1
2	9451	1683	0
2	9458	1684	1
2	9460	1684	0
2	9510	1694	1
2	9510	1694	0
2	9584	1706	1
2	9584	1706	0
2	9589	1707	1
2	9591	1707	0
2	9603	1709	1
2	9603	1709	0
2	9613	1710	1
2	9615	1710	0
2	9627	1713	1
2	9630	1714	2
2	9633	1715	3
2	9637	1716	2
2	9643	1717	1
2	9648	1718	2
2	9652	1718	1
2	9662	1719	0
2	9701	1727	1
2	9701	1727	0
2	9729	1733	1
2	9729	1733	0
2	9747	1737	1
2	9747	1737	0
2	9755	1738	1
2	9757	1738	0
2	9764	1739	1
2	9766	1739	0
2	9785	1742	1
2	9785	1742	0
2	9786	1742	1
2	9798	1743	0
2	9815	1746	1
2	9815	1746	0
2	9870	1761	1
2	9870	1761	0
2	9892	1764	1
2	9892	1764	0
2	9909	1766	1
2	9909	1766	0
2	9933	1770	1
2	9933	1770	0
2	9945	1772	1
2	9945	1772	0
2	9956	1773	1
2	9958	1773	0
2	9967	1774	1
2	9969	1774	0
2	9976	1775	1
2	9978	1775	0
2	9987	1777	1
2	9987	1777	0
2	9996	1779	1
2	9996	1779	0
2	9997	1779	1
2	10003	1780	0
2	10019	1783	1
2	10019	1783	0
2	10053	1795	1
2	10053	1795	0
2	10058	1796	1
2	10060	1796	0
2	10065	1797	1
2	10068	1797	0
2	10087	1802	1
2	10087	1802	0
2	10088	1802	1
2	10098	1803	0
2	10131	1809	1
2	10131	1809	0
2	10139	1810	1
2	10140	1810	2
2	10168	1815	1
2	10175	1816	2
2	10178	1816	1
2	10190	1817	0
2	10261	1827	1
2	10261	1827	0
2	10305	1834	1
2	10305	1834	0
2	10306	1834	1
2	10313	1835	2
2	10315	1835	1
2	10321	1836	0
2	10332	1839	1
2	10332	1839	0
2	10341	1841	1
2	10341	1841	0
2	10391	1851	1
2	10391	1851	0
2	10402	1854	1
2	10402	1854	0
2	10430	1859	1
2	10430	1859	0
2	10462	1865	1
2	10462	1865	0
2	10469	1866	1
2	10470	1866	2
2	10473	1866	1
2	10480	1867	2
2	10484	1867	1
2	10490	1868	0
2	10499	1870	1
2	10499	1870	0
2	10508	1872	1
2	10508	1872	0
2	10513	1873	1
2	10515	1873	0
2	10520	1874	1
2	10522	1874	0
2	10551	1881	1
2	10551	1881	0
2	10576	1886	1
2	10576	1886	0
2	10581	1887	1
2	10582	1887	2
2	10584	1887	1
2	10591	1888	0
2	10613	1893	1
2	10613	1893	0
2	10624	1895	1
2	10624	1895	0
2	10629	1896	1
2	10632	1896	0
2	10681	1906	1
2	10681	1906	0
2	10690	1908	1
2	10690	1908	0
2	10691	1908	1
2	10696	1909	2
2	10698	1909	1
2	10703	1910	2
2	10714	1912	3
2	10725	1915	2
2	10726	1915	3
2	10734	1916	2
2	10739	1917	3
2	10741	1917	2
2	10747	1918	1
2	10752	1919	2
2	10754	1919	1
2	10759	1920	2
2	10761	1920	1
2	10766	1921	2
2	10767	1921	3
2	10769	1921	2
2	10774	1922	3
2	10775	1922	4
2	10777	1922	3
2	10782	1923	4
2	10784	1923	3
2	10792	1924	2
2	10802	1925	1
2	10812	1926	0
2	10817	1927	1
2	10819	1927	0
2	10848	1934	1
2	10848	1934	0
2	10927	1951	1
2	10927	1951	0
2	10944	1953	1
2	10944	1953	0
2	10955	1955	1
2	10955	1955	0
2	10981	1959	1
2	10981	1959	0
2	11023	1969	1
2	11023	1969	0
2	11042	1971	1
2	11042	1971	0
2	11051	1972	1
2	11053	1972	0
2	11068	1974	1
2	11068	1974	0
2	11069	1974	1
2	11079	1975	0
2	11094	1977	1
2	11094	1977	0
2	11095	1977	1
2	11101	1978	0
2	11121	1983	1
2	11121	1983	0
2	11137	1986	1
2	11137	1986	0
2	11164	1992	1
2	11164	1992	0
2	11175	1995	1
2	11175	1995	0
2	11184	1996	1
2	11186	1996	0
2	11202	1999	1
2	11210	2002	0
2	11215	2003	1
2	11216	2003	2
2	11218	2003	1
2	11225	2004	0
2	11276	2013	1
2	11276	2013	0
2	11305	2017	1
2	11305	2017	0
2	11333	2021	1
2	11333	2021	0
2	11342	2023	1
2	11342	2023	0
2	11347	2024	1
2	11350	2024	0
2	11371	2028	1
2	11371	2028	0
2	11380	2029	1
2	11381	2029	2
2	11382	2029	3
2	11384	2029	2
2	11392	2030	1
2	11400	2031	0
2	11407	2032	1
2	11411	2032	0
2	11418	2033	1
2	11422	2033	0
2	11472	2044	1
2	11472	2044	0
2	11500	2047	1
2	11500	2047	0
2	11501	2047	1
2	11511	2048	0
2	11544	2054	1
2	11544	2054	0
2	11562	2058	1
2	11562	2058	0
2	11563	2058	1
2	11572	2059	0
2	11579	2060	1
2	11581	2060	0
2	11586	2061	1
2	11587	2061	2
2	11591	2061	1
2	11602	2062	0
2	11646	2070	1
2	11646	2070	0
2	11647	2070	1
2	11659	2071	0
2	11705	2077	1
2	11705	2077	0
2	11723	2079	1
2	11723	2079	0
2	11802	2096	1
2	11802	2096	0
2	11832	2100	1
2	11832	2100	0
2	11855	2103	1
2	11855	2103	0
2	11856	2103	1
2	11895	2109	0
2	11906	2112	1
2	11906	2112	0
2	11924	2116	1
2	11924	2116	0
2	11953	2121	1
2	11953	2121	0
2	11954	2121	1
2	11964	2122	0
2	12007	2130	1
2	12007	2130	0
2	12041	2135	1
2	12041	2135	0
2	12042	2135	1
2	12052	2136	0
2	12059	2137	1
2	12061	2137	0
2	12089	2141	1
2	12089	2141	0
2	12113	2144	1
2	12113	2144	0
2	12141	2147	1
2	12141	2147	0
2	12142	2147	1
2	12152	2148	0
2	12193	2156	1
2	12193	2156	0
2	12208	2158	1
2	12208	2158	0
2	12217	2160	1
2	12217	2160	0
2	12235	2165	1
2	12235	2165	0
2	12242	2166	1
2	12244	2166	0
2	12253	2168	1
2	12253	2168	0
2	12258	2169	1
2	12260	2169	0
2	12282	2172	1
2	12282	2172	0
2	12291	2173	1
2	12293	2173	0
2	12314	2176	1
2	12314	2176	0
2	12338	2179	1
2	12338	2179	0
2	12355	2184	1
2	12355	2184	0
2	12360	2185	1
2	12363	2185	0
2	12376	2187	1
2	12376	2187	0
2	12381	2188	1
2	12383	2188	0
2	12394	2191	1
2	12394	2191	0
2	12427	2200	1
2	12427	2200	0
2	12437	2203	1
2	12443	2204	2
2	12451	2206	1
2	12458	2207	0
2	12477	2210	1
2	12477	2210	0
2	12492	2212	1
2	12492	2212	0
2	12497	2213	1
2	12499	2213	0
2	12508	2215	1
2	12508	2215	0
2	12530	2221	1
2	12530	2221	0
2	12564	2225	1
2	12564	2225	0
2	12565	2225	1
2	12577	2226	0
2	12607	2230	1
2	12607	2230	0
2	12624	2233	1
2	12624	2233	0
2	12629	2234	1
2	12630	2234	2
2	12632	2234	1
2	12639	2235	0
2	12652	2237	1
2	12652	2237	0
2	12683	2243	1
2	12683	2243	0
2	12715	2247	1
2	12715	2247	0
2	12722	2248	1
2	12724	2248	0
2	12738	2251	1
2	12738	2251	0
2	12739	2251	1
2	12747	2252	0
2	12752	2253	1
2	12754	2253	0
2	12759	2254	1
2	12763	2254	0
2	12843	2266	1
2	12843	2266	0
2	12844	2266	1
2	12845	2266	2
2	12853	2267	1
2	12858	2268	2
2	12860	2268	1
2	12866	2269	0
2	12885	2276	1
2	12885	2276	0
2	12886	2276	1
2	12893	2277	0
2	12916	2280	1
2	12916	2280	0
2	12969	2289	1
2	12969	2289	0
2	12979	2290	1
2	12982	2290	0
2	13016	2297	1
2	13016	2297	0
2	13023	2298	1
2	13024	2298	2
2	13025	2298	3
2	13028	2298	2
2	13038	2299	1
2	13044	2300	0
2	13056	2302	1
2	13056	2302	0
2	13057	2302	1
2	13064	2303	2
2	13066	2303	1
2	13071	2304	2
2	13073	2304	1
2	13078	2305	2
2	13080	2305	1
2	13086	2306	0
2	13106	2311	1
2	13106	2311	0
2	13107	2311	1
2	13117	2312	0
2	13134	2315	1
2	13134	2315	0
2	13139	2316	1
2	13141	2316	0
2	13146	2317	1
2	13148	2317	0
2	13161	2321	1
2	13161	2321	0
2	13179	2325	1
2	13179	2325	0
2	13195	2328	1
2	13195	2328	0
2	13204	2330	1
2	13204	2330	0
2	13223	2333	1
2	13223	2333	0
2	13244	2335	1
2	13244	2335	0
2	13268	2338	1
2	13268	2338	0
2	13275	2339	1
2	13276	2339	2
2	13278	2339	1
2	13284	2340	0
2	13289	2341	1
2	13291	2341	0
2	13321	2346	1
2	13321	2346	0
2	13357	2355	1
2	13357	2355	0
2	13364	2356	1
2	13365	2356	2
2	13367	2356	1
2	13373	2357	0
2	13396	2361	1
2	13396	2361	0
2	13405	2363	1
2	13405	2363	0
2	13449	2372	1
2	13449	2372	0
2	13460	2375	1
2	13460	2375	0
2	13469	2377	1
2	13469	2377	0
2	13474	2378	1
2	13476	2378	0
2	13485	2380	1
2	13485	2380	0
2	13486	2380	1
2	13497	2381	0
2	13514	2383	1
2	13514	2383	0
2	13525	2385	1
2	13525	2385	0
2	13565	2395	1
2	13565	2395	0
2	13570	2396	1
2	13572	2396	0
2	13577	2397	1
2	13580	2397	0
2	13603	2402	1
2	13603	2402	0
2	13614	2403	1
2	13618	2403	0
2	13688	2414	1
2	13688	2414	0
2	13708	2420	1
2	13708	2420	0
2	13727	2422	1
2	13727	2422	0
2	13740	2425	1
2	13740	2425	0
2	13751	2428	1
2	13751	2428	0
2	13752	2428	1
2	13761	2429	2
2	13765	2429	1
2	13776	2430	0
2	13793	2432	1
2	13793	2432	0
2	13836	2443	1
2	13836	2443	0
2	13837	2443	1
2	13838	2443	2
2	13847	2444	1
2	13855	2445	0
2	13866	2448	1
2	13866	2448	0
2	13901	2453	1
2	13901	2453	0
2	13914	2457	1
2	13914	2457	0
2	13922	2458	1
2	13924	2458	0
2	13958	2464	1
2	13958	2464	0
2	13972	2467	1
2	13972	2467	0
2	13973	2467	1
2	13980	2468	2
2	13986	2470	3
2	13991	2472	4
2	13995	2473	3
2	14001	2474	2
2	14007	2475	1
2	14014	2476	0
2	14063	2487	1
2	14063	2487	0
2	14100	2493	1
2	14100	2493	0
2	14124	2499	1
2	14124	2499	0
2	14125	2499	1
2	14131	2500	0
2	14140	2502	1
2	14140	2502	0
2	14165	2506	1
2	14165	2506	0
2	14182	2508	1
2	14182	2508	0
2	14199	2510	1
2	14199	2510	0
2	14212	2513	1
2	14212	2513	0
2	14253	2521	1
2	14253	2521	0
2	14254	2521	1
2	14260	2522	0
2	14283	2526	1
2	14283	2526	0
2	14296	2530	1
2	14296	2530	0
2	14331	2534	1
2	14331	2534	0
2	14355	2537	1
2	14355	2537	0
2	14365	2538	1
2	14371	2538	0
2	14380	2539	1
2	14383	2539	0
2	14400	2541	1
2	14400	2541	0
2	14401	2541	1
2	14411	2542	0
2	14428	2544	1
2	14428	2544	0
2	14429	2544	1
2	14439	2545	0
2	14446	2546	1
2	14448	2546	0
2	14453	2547	1
2	14454	2547	2
2	14456	2547	1
2	14462	2548	0
2	14467	2549	1
2	14469	2549	0
2	14485	2552	1
2	14485	2552	0
2	14486	2552	1
2	14512	2558	0
2	14547	2563	1
2	14547	2563	0
2	14595	2570	1
2	14595	2570	0
2	14663	2583	1
2	14663	2583	0
2	14664	2583	1
2	14674	2584	0
2	14683	2585	1
2	14689	2585	0
2	14714	2588	1
2	14714	2588	0
2	14778	2599	1
2	14778	2599	0
2	14779	2599	1
2	14787	2600	0
2	14800	2602	1
2	14800	2602	0
2	14809	2603	1
2	14811	2603	0
2	14873	2614	1
2	14873	2614	0
2	14917	2619	1
2	14917	2619	0
2	14946	2623	1
2	14946	2623	0
2	15001	2632	1
2	15001	2632	0
2	15019	2634	1
2	15019	2634	0
2	15036	2637	1
2	15036	2637	0
2	15037	2637	1
2	15048	2638	0
2	15057	2639	1
2	15059	2639	0
2	15068	2640	1
2	15069	2640	2
2	15070	2640	3
2	15072	2640	2
2	15080	2641	1
2	15085	2642	2
2	15087	2642	1
2	15092	2643	2
2	15094	2643	1
2	15100	2644	0
2	15105	2645	1
2	15108	2645	0
2	15115	2646	1
2	15119	2646	0
2	15154	2655	1
2	15154	2655	0
2	15172	2657	1
2	15172	2657	0
2	15181	2658	1
2	15182	2658	2
2	15184	2658	1
2	15196	2659	0
2	15225	2663	1
2	15241	2665	0
2	15242	2665	1
2	15250	2666	0
2	15277	2672	1
2	15277	2672	0
2	15303	2675	1
2	15303	2675	0
2	15312	2676	1
2	15315	2676	0
2	15343	2680	1
2	15343	2680	0
2	15352	2682	1
2	15352	2682	0
2	15381	2689	1
2	15381	2689	0
2	15406	2694	1
2	15406	2694	0
2	15411	2695	1
2	15413	2695	0
2	15418	2696	1
2	15420	2696	0
2	15433	2700	1
2	15433	2700	0
2	15449	2703	1
2	15449	2703	0
2	15465	2706	1
2	15465	2706	0
2	15509	2718	1
2	15509	2718	0
2	15533	2722	1
2	15533	2722	0
2	15558	2725	1
2	15558	2725	0
2	15559	2725	1
2	15569	2726	0
2	15588	2730	1
2	15588	2730	0
2	15593	2731	1
2	15596	2731	0
2	15603	2732	1
2	15607	2732	0
2	15628	2736	1
2	15628	2736	0
2	15638	2737	1
2	15640	2737	0
2	15653	2740	1
2	15653	2740	0
2	15654	2740	1
2	15655	2740	2
2	15656	2740	3
2	15661	2741	4
2	15663	2741	3
2	15669	2742	2
2	15674	2743	3
2	15677	2743	2
2	15684	2744	3
2	15688	2744	2
2	15694	2745	1
2	15699	2746	2
2	15701	2746	1
2	15706	2747	2
2	15721	2751	3
2	15728	2752	2
2	15729	2752	3
2	15736	2753	4
2	15738	2753	3
2	15747	2754	2
2	15757	2755	1
2	15767	2756	0
2	15774	2757	1
2	15779	2757	0
2	15810	2761	1
2	15810	2761	0
2	15819	2762	1
2	15820	2762	2
2	15822	2762	1
2	15831	2763	0
2	15848	2767	1
2	15848	2767	0
2	15907	2782	1
2	15907	2782	0
2	15908	2782	1
2	15921	2783	0
2	15973	2790	1
2	15973	2790	0
2	16002	2795	1
2	16002	2795	0
2	16036	2801	1
2	16036	2801	0
2	16048	2803	1
2	16048	2803	0
2	16055	2804	1
2	16057	2804	0
2	16066	2806	1
2	16066	2806	0
2	16077	2809	1
2	16077	2809	0
2	16086	2811	1
2	16086	2811	0
2	16106	2816	1
2	16106	2816	0
2	16124	2820	1
2	16124	2820	0
2	16136	2822	1
2	16136	2822	0
2	16143	2823	1
2	16146	2823	0
2	16153	2824	1
2	16157	2824	0
2	16166	2826	1
2	16166	2826	0
2	16176	2827	1
2	16179	2827	0
2	16188	2828	1
2	16190	2828	0
2	16228	2837	1
2	16228	2837	0
2	16244	2840	1
2	16244	2840	0
2	16249	2841	1
2	16270	2846	0
2	16309	2853	1
2	16309	2853	0
2	16310	2853	1
2	16318	2854	0
2	16330	2856	1
2	16330	2856	0
2	16337	2857	1
2	16338	2857	2
2	16341	2857	1
2	16351	2858	0
2	16372	2862	1
2	16372	2862	0
2	16379	2863	1
2	16381	2863	0
2	16386	2864	1
2	16388	2864	0
2	16393	2865	1
2	16395	2865	0
2	16404	2867	1
2	16404	2867	0
2	16405	2867	1
2	16410	2868	2
2	16412	2868	1
2	16417	2869	2
2	16420	2869	1
2	16427	2870	2
2	16431	2870	1
2	16438	2871	0
2	16456	2874	1
2	16456	2874	0
2	16470	2876	1
2	16470	2876	0
2	16522	2887	1
2	16522	2887	0
2	16529	2888	1
2	16531	2888	0
2	16540	2890	1
2	16540	2890	0
2	16552	2892	1
2	16552	2892	0
2	16570	2895	1
2	16570	2895	0
2	16592	2901	1
2	16592	2901	0
2	16609	2903	1
2	16609	2903	0
2	16610	2903	1
2	16618	2904	0
2	16638	2909	1
2	16638	2909	0
2	16639	2909	1
2	16650	2910	2
2	16652	2910	1
2	16662	2911	0
2	16689	2917	1
2	16689	2917	0
2	16722	2926	1
2	16722	2926	0
2	16753	2932	1
2	16753	2932	0
2	16772	2938	1
2	16772	2938	0
2	16799	2944	1
2	16799	2944	0
2	16804	2945	1
2	16807	2945	0
2	16824	2949	1
2	16824	2949	0
2	16833	2951	1
2	16833	2951	0
2	16834	2951	1
2	16843	2952	0
2	16980	2975	1
2	16980	2975	0
2	17024	2984	1
2	17024	2984	0
2	17036	2986	1
2	17036	2986	0
2	17060	2992	1
2	17060	2992	0
2	17080	2997	1
2	17080	2997	0
2	17089	2999	1
2	17089	2999	0
2	17132	3009	1
2	17132	3009	0
2	17148	3012	1
2	17148	3012	0
2	17176	3016	1
2	17176	3016	0
2	17183	3017	1
2	17185	3017	0
2	17190	3018	1
2	17192	3018	0
2	17197	3019	1
2	17199	3019	0
2	17210	3022	1
2	17210	3022	0
2	17211	3022	1
2	17219	3023	2
2	17221	3023	1
2	17229	3024	0
2	17249	3029	1
2	17249	3029	0
2	17258	3030	1
2	17260	3030	0
2	17278	3032	1
2	17278	3032	0
2	17285	3033	1
2	17287	3033	0
2	17292	3034	1
2	17294	3034	0
2	17308	3037	1
2	17308	3037	0
2	17319	3039	1
2	17319	3039	0
2	17356	3046	1
2	17356	3046	0
2	17367	3047	1
2	17411	3052	0
2	17453	3058	1
2	17453	3058	0
2	17474	3061	1
2	17474	3061	0
2	17519	3067	1
2	17519	3067	0
2	17549	3071	1
2	17549	3071	0
2	17563	3073	1
2	17563	3073	0
2	17568	3074	1
2	17570	3074	0
2	17599	3081	1
2	17599	3081	0
2	17619	3086	1
2	17619	3086	0
2	17644	3089	1
2	17644	3089	0
2	17645	3089	1
2	17655	3090	0
2	17662	3091	1
2	17664	3091	0
2	17685	3095	1
2	17685	3095	0
2	17699	3097	1
2	17699	3097	0
2	17710	3099	1
2	17710	3099	0
2	17778	3113	1
2	17778	3113	0
2	17798	3118	1
2	17798	3118	0
2	17809	3121	1
2	17809	3121	0
2	17826	3127	1
2	17826	3127	0
2	17846	3130	1
2	17846	3130	0
2	17865	3134	1
2	17865	3134	0
2	17883	3136	1
2	17883	3136	0
2	17900	3139	1
2	17900	3139	0
2	17905	3140	1
2	17907	3140	0
2	17940	3149	1
2	17940	3149	0
2	17960	3154	1
2	17960	3154	0
2	17976	3157	1
2	17976	3157	0
2	17996	3160	1
2	17996	3160	0
2	18037	3165	1
2	18037	3165	0
2	18065	3169	1
2	18065	3169	0
2	18073	3170	1
2	18096	3175	0
2	18107	3177	1
2	18107	3177	0
2	18133	3183	1
2	18133	3183	0
2	18192	3193	1
2	18192	3193	0
2	18248	3206	1
2	18248	3206	0
2	18255	3207	1
2	18257	3207	0
2	18262	3208	1
2	18263	3208	2
2	18265	3208	1
2	18271	3209	0
2	18294	3214	1
2	18294	3214	0
2	18332	3220	1
2	18332	3220	0
2	18343	3221	1
2	18345	3221	0
2	18382	3227	1
2	18382	3227	0
2	18387	3228	1
2	18388	3228	2
2	18392	3228	1
2	18399	3229	2
2	18400	3229	3
2	18405	3229	2
2	18416	3230	1
2	18423	3231	2
2	18427	3231	1
2	18439	3232	0
2	18446	3233	1
2	18450	3233	0
2	18457	3234	1
2	18461	3234	0
2	18486	3239	1
2	18486	3239	0
2	18499	3243	1
2	18499	3243	0
2	18537	3248	1
2	18537	3248	0
2	18562	3252	1
2	18562	3252	0
2	18563	3252	1
2	18569	3253	0
2	18603	3261	1
2	18603	3261	0
2	18610	3262	1
2	18612	3262	0
2	18625	3266	1
2	18625	3266	0
2	18650	3271	1
2	18650	3271	0
2	18651	3271	1
2	18657	3272	0
2	18669	3274	1
2	18669	3274	0
2	18681	3277	1
2	18689	3280	0
2	18694	3281	1
2	18697	3281	0
2	18713	3283	1
2	18713	3283	0
2	18714	3283	1
2	18725	3284	0
2	18732	3285	1
2	18734	3285	0
2	18745	3288	1
2	18745	3288	0
2	18761	3291	1
2	18761	3291	0
2	18778	3293	1
2	18778	3293	0
2	18785	3294	1
2	18786	3294	2
2	18788	3294	1
2	18794	3295	0
2	18816	3301	1
2	18816	3301	0
2	18821	3302	1
2	18824	3302	0
2	18871	3316	1
2	18871	3316	0
2	18894	3321	1
2	18894	3321	0
2	18945	3329	1
2	18945	3329	0
2	18956	3331	1
2	18956	3331	0
2	18964	3332	1
2	18965	3332	2
2	18967	3332	1
2	18975	3333	0
2	18980	3334	1
2	18984	3334	0
2	19006	3337	1
2	19006	3337	0
2	19027	3340	1
2	19027	3340	0
2	19041	3342	1
2	19041	3342	0
2	19042	3342	1
2	19054	3343	0
2	19079	3346	1
2	19079	3346	0
2	19108	3352	1
2	19108	3352	0
2	19117	3354	1
2	19117	3354	0
2	19125	3355	1
2	19128	3355	0
2	19173	3362	1
2	19173	3362	0
2	19178	3363	1
2	19180	3363	0
2	19185	3364	1
2	19186	3364	2
2	19189	3364	1
2	19205	3368	2
2	19211	3370	1
2	19212	3370	2
2	19217	3371	3
2	19219	3371	2
2	19225	3372	1
2	19231	3373	0
2	19265	3381	1
2	19265	3381	0
2	19303	3389	1
2	19303	3389	0
2	19304	3389	1
2	19310	3390	0
2	19323	3394	1
2	19323	3394	0
2	19361	3404	1
2	19361	3404	0
2	19390	3410	1
2	19390	3410	0
2	19395	3411	1
2	19396	3411	2
2	19398	3411	1
2	19404	3412	0
2	19409	3413	1
2	19411	3413	0
2	19425	3416	1
2	19425	3416	0
2	19432	3417	1
2	19434	3417	0
2	19439	3418	1
2	19440	3418	2
2	19442	3418	1
2	19448	3419	0
2	19467	3426	1
2	19467	3426	0
2	19468	3426	1
2	19469	3426	2
2	19475	3427	1
2	19481	3428	0
2	19486	3429	1
2	19490	3429	0
2	19512	3432	1
2	19512	3432	0
2	19528	3434	1
2	19528	3434	0
2	19545	3437	1
2	19545	3437	0
2	19599	3444	1
2	19599	3444	0
2	19608	3445	1
2	19610	3445	0
2	19619	3446	1
2	19624	3446	0
2	19667	3452	1
2	19667	3452	0
2	19685	3455	1
2	19685	3455	0
2	19696	3458	1
2	19696	3458	0
2	19754	3469	1
2	19754	3469	0
2	19763	3471	1
2	19763	3471	0
2	19764	3471	1
2	19770	3472	0
2	19833	3482	1
2	19833	3482	0
2	19840	3483	1
2	19842	3483	0
2	19860	3487	1
2	19860	3487	0
2	19861	3487	1
2	19867	3488	0
2	19895	3494	1
2	19895	3494	0
2	19913	3496	1
2	19913	3496	0
2	19941	3500	1
2	19941	3500	0
2	19942	3500	1
2	19948	3501	0
2	20011	3515	1
2	20011	3515	0
2	20020	3517	1
2	20020	3517	0
2	20025	3518	1
2	20027	3518	0
2	20032	3519	1
2	20033	3519	2
2	20035	3519	1
2	20041	3520	0
2	20052	3523	1
2	20052	3523	0
2	20082	3528	1
2	20082	3528	0
2	20102	3531	1
2	20102	3531	0
2	20123	3536	1
2	20123	3536	0
2	20151	3543	1
2	20151	3543	0
2	20166	3545	1
2	20166	3545	0
2	20189	3549	1
2	20189	3549	0
2	20219	3557	1
2	20219	3557	0
2	20228	3558	1
2	20230	3558	0
2	20243	3561	1
2	20243	3561	0
2	20281	3568	1
2	20281	3568	0
2	20293	3569	1
2	20295	3569	0
2	20304	3570	1
2	20306	3570	0
2	20361	3580	1
2	20361	3580	0
2	20373	3584	1
2	20379	3586	0
2	20384	3587	1
2	20386	3587	0
2	20395	3589	1
2	20395	3589	0
2	20423	3598	1
2	20423	3598	0
2	20439	3602	1
2	20439	3602	0
2	20504	3612	1
2	20504	3612	0