version 3
run Experimentos-854-20260514-09:21:39-7699
attr configname Experimentos
attr datetime 20260514-09:21:39
attr datetimef 20260514-092139
attr experiment Experimentos
attr inifile TwoQueues.ini
attr iterationvars "$p=0.7, $q=0.3, $Y=20, $m=4"
attr iterationvarsd p=0.7/q=0.3/Y=20/m=4
attr iterationvarsf p=0.7,q=0.3,Y=20,m=4-
attr measurement "$p=0.7, $q=0.3, $Y=20, $m=4"
attr network TwoQueues
attr processid 7699
attr repetition 14
attr replication #14
attr resultdir results
attr runnumber 854
attr seedset 854
itervar Y 20
itervar m 4
itervar p 0.7
itervar q 0.3
config description "Barrido completo de parámetros Proyecto 12"
config **.source1.p 0.7
config **.source1.q 0.2
config **.source2.p 0.6
config **.source2.q 0.3
config **.serverWithMaintenance.Y 20
config **.serverWithMaintenance.m 4
config network TwoQueues
config cpu-time-limit 5000s
config sim-time-limit 5000s
config warmup-period 400s
config repeat 20
config output-scalar-file results/Experimentos-p=0.7,q=0.3,Y=20,m=4--#14.sca
config output-vector-file results/Experimentos-p=0.7,q=0.3,Y=20,m=4--#14.vec
config **.vector-recording true

vector 0 TwoQueues.serverWithMaintenance residenceTime2:vector ETV
attr recordingmode vector
attr source delay2
attr title "Residence Time Class 2"
vector 1 TwoQueues.queue2 queueLengthStats:vector ETV
attr recordingmode vector
attr source qlen
attr title "Average Queue Length"
vector 2 TwoQueues.queue1 queueLengthStats:vector ETV
attr recordingmode vector
attr source qlen
attr title "Average Queue Length"
vector 3 TwoQueues.server residenceTime1:vector ETV
attr recordingmode vector
attr source delay1
attr title "Residence Time Class 1"
vector 4 TwoQueues.server throughputStats1:vector ETV
attr recordingmode vector
attr source throughput1
attr title "Throughput Class 1"
0	2284	402	1
0	2297	404	1
0	2303	405	2
0	2326	408	1
0	2347	411	1
0	2373	417	1
0	2379	418	2
0	2400	422	1
0	2441	429	1
0	2448	430	1
0	2482	436	1
0	2492	437	1
0	2502	438	1
0	2515	440	1
0	2527	442	1
0	2570	452	1
0	2613	461	1
0	2637	464	1
0	2646	466	1
0	2675	472	1
0	2718	482	1
0	2729	483	1
0	2740	484	1
0	2749	485	1
0	2763	487	1
0	2770	488	1
0	2781	491	1
0	2799	494	1
0	2819	496	1
0	2828	497	2
0	2847	503	1
0	2869	507	1
0	2875	508	2
0	2882	509	1
0	2917	514	1
0	2944	519	4
0	2951	520	2
0	2957	521	2
0	2967	523	1
0	2973	524	2
0	2984	527	1
0	2995	528	1
0	3007	529	1
0	3037	534	1
0	3047	535	2
0	3066	540	1
0	3075	541	2
0	3089	543	1
0	3129	552	1
0	3139	553	1
0	3181	562	1
0	3203	565	1
0	3214	566	1
0	3224	567	1
0	3280	580	1
0	3303	585	1
0	3323	587	1
0	3332	588	2
0	3339	589	1
0	3359	594	1
0	3366	595	1
0	3373	596	1
0	3381	597	1
0	3387	598	2
0	3399	599	1
0	3409	600	2
0	3433	606	1
0	3459	614	1
0	3470	615	1
0	3478	616	2
0	3496	619	1
0	3506	620	1
0	3542	626	1
0	3552	627	2
0	3562	628	1
0	3591	633	2
0	3602	634	2
0	3614	636	1
0	3649	643	1
0	3659	644	2
0	3672	645	2
0	3683	646	2
0	3722	651	1
0	3789	663	1
0	3796	664	2
0	3802	665	2
0	3857	680	1
0	3864	681	1
0	3878	683	1
0	3889	686	1
0	3917	694	1
0	3987	704	1
0	4034	711	1
0	4069	715	1
0	4106	720	1
0	4136	725	6
0	4156	729	1
0	4167	730	1
0	4176	731	2
0	4183	732	2
0	4194	733	2
0	4205	734	2
0	4225	737	1
0	4236	738	2
0	4264	742	1
0	4281	744	1
0	4295	745	1
0	4307	746	2
0	4317	747	2
0	4367	755	1
0	4377	756	2
0	4432	765	1
0	4442	766	2
0	4454	768	1
0	4461	769	1
0	4484	774	1
0	4503	777	1
0	4541	782	1
0	4591	790	1
0	4605	793	1
0	4621	795	1
0	4654	800	1
0	4674	805	1
0	4681	806	1
0	4688	807	1
0	4703	811	1
0	4722	813	1
0	4740	817	1
0	4809	826	1
0	4834	829	1
0	4855	833	1
0	4876	838	1
0	4882	839	2
0	4893	841	1
0	4907	844	1
0	4930	849	5
0	4939	850	4
0	4953	851	4
0	4961	852	2
0	4967	853	3
0	4973	854	4
0	4980	855	1
0	4994	857	1
0	5003	859	1
0	5014	862	1
0	5025	865	1
0	5032	866	1
0	5058	873	1
0	5069	874	1
0	5076	875	2
0	5082	876	2
0	5093	879	1
0	5100	880	1
0	5115	885	1
0	5128	889	1
0	5162	894	5
0	5171	895	4
0	5181	896	1
0	5211	901	1
0	5227	903	1
0	5243	905	1
0	5261	910	1
0	5271	912	1
0	5277	913	2
0	5300	917	1
0	5307	918	1
0	5318	920	1
0	5328	921	1
0	5377	932	1
0	5389	934	1
0	5413	941	1
0	5422	943	1
0	5436	945	1
0	5485	952	1
0	5502	955	1
0	5523	960	6
0	5529	961	3
0	5546	967	1
0	5568	970	1
0	5574	971	2
0	5585	972	1
0	5593	973	2
0	5609	975	1
0	5675	985	1
0	5692	987	1
0	5698	988	2
0	5727	994	1
0	5737	995	1
0	5759	1000	1
0	5828	1014	1
0	5837	1015	2
0	5846	1017	1
0	5857	1019	1
0	5885	1023	1
0	5906	1026	1
0	5958	1035	1
0	5991	1043	1
0	6007	1047	1
0	6018	1049	1
0	6058	1055	1
0	6082	1058	1
0	6100	1061	1
0	6140	1066	1
0	6151	1067	1
0	6162	1068	1
0	6173	1069	1
0	6195	1073	1
0	6206	1074	2
0	6214	1075	2
0	6220	1076	3
0	6231	1078	1
0	6245	1081	1
0	6272	1087	1
0	6283	1088	1
0	6294	1089	1
0	6325	1094	4
0	6334	1095	4
0	6347	1098	1
0	6357	1099	1
0	6373	1102	1
0	6391	1104	1
0	6403	1105	2
0	6413	1106	2
0	6427	1107	1
0	6454	1110	1
0	6464	1111	2
0	6473	1112	3
0	6480	1113	1
0	6508	1117	1
0	6534	1122	1
0	6544	1123	2
0	6555	1124	1
0	6580	1128	1
0	6605	1134	1
0	6614	1135	2
0	6641	1140	5
0	6647	1141	4
0	6658	1143	1
0	6672	1146	1
0	6682	1147	1
0	6693	1149	1
0	6720	1154	1
0	6776	1163	1
0	6796	1166	1
0	6874	1176	1
0	6962	1188	1
0	6973	1189	1
0	6998	1192	1
0	7009	1193	2
0	7019	1194	2
0	7025	1195	2
0	7032	1196	1
0	7044	1197	1
0	7055	1198	1
0	7068	1199	1
0	7102	1204	6
0	7111	1205	5
0	7124	1209	1
0	7133	1211	1
0	7142	1212	1
0	7148	1213	2
0	7154	1214	3
0	7163	1216	1
0	7184	1219	1
0	7191	1220	1
0	7210	1222	1
0	7233	1225	1
0	7243	1226	1
0	7275	1232	1
0	7282	1233	1
0	7301	1239	1
0	7334	1249	1
0	7366	1254	1
0	7398	1259	1
0	7407	1260	2
0	7428	1265	7
0	7434	1266	5
0	7472	1273	1
0	7526	1281	1
0	7541	1284	1
0	7547	1285	2
0	7556	1287	1
0	7565	1289	1
0	7572	1290	1
0	7581	1292	1
0	7609	1296	1
0	7710	1315	1
0	7719	1316	2
0	7728	1318	1
0	7741	1322	1
0	7762	1326	1
0	7806	1332	1
0	7841	1342	1
0	7849	1343	1
0	7855	1344	2
0	7883	1350	1
0	7904	1358	1
0	7933	1363	1
0	7944	1364	1
0	7996	1374	1
0	8003	1375	1
0	8012	1377	1
0	8033	1385	1
0	8056	1389	1
0	8063	1390	1
0	8076	1394	1
0	8083	1395	1
0	8110	1406	1
0	8117	1407	1
0	8124	1408	1
0	8134	1409	1
0	8179	1418	1
0	8197	1422	1
0	8206	1424	1
0	8230	1427	1
0	8260	1433	1
0	8271	1434	1
0	8296	1438	1
0	8302	1439	2
0	8317	1444	1
0	8326	1446	1
0	8333	1447	1
0	8341	1448	1
0	8350	1449	2
0	8359	1450	1
0	8370	1453	1
0	8384	1455	1
0	8406	1459	1
0	8430	1463	1
0	8439	1465	1
0	8453	1469	1
0	8459	1470	2
0	8486	1476	1
0	8493	1477	1
0	8516	1480	1
0	8554	1486	1
0	8574	1488	1
0	8585	1489	1
0	8598	1490	1
0	8618	1494	1
0	8629	1495	1
0	8641	1496	2
0	8649	1497	2
0	8656	1498	1
0	8737	1517	1
0	8806	1527	1
0	8827	1531	1
0	8834	1532	1
0	8856	1538	1
0	8872	1540	1
0	8892	1543	1
0	8902	1544	2
0	8910	1545	2
0	8980	1562	1
0	8986	1563	2
0	9007	1568	5
0	9018	1570	1
0	9037	1573	1
0	9044	1574	1
0	9083	1580	1
0	9139	1588	1
0	9163	1591	1
0	9177	1593	1
0	9190	1597	1
0	9223	1607	1
0	9243	1610	1
0	9257	1613	1
0	9264	1614	1
0	9294	1619	1
0	9314	1624	1
0	9322	1625	1
0	9328	1626	2
0	9344	1628	1
0	9354	1629	1
0	9362	1630	1
0	9385	1635	6
0	9406	1638	1
0	9418	1639	2
0	9428	1640	2
0	9434	1641	2
0	9444	1643	1
0	9450	1644	2
0	9463	1648	1
0	9486	1651	1
0	9515	1659	1
0	9533	1663	1
0	9544	1665	1
0	9565	1669	1
0	9576	1670	1
0	9617	1680	1
0	9628	1682	1
0	9644	1686	1
0	9669	1690	1
0	9689	1696	1
0	9698	1698	1
0	9719	1703	3
0	9776	1713	1
0	9806	1719	1
0	9816	1720	1
0	9841	1724	1
0	9862	1727	1
0	9877	1732	1
0	9890	1735	1
0	9912	1741	1
0	9927	1742	1
0	9937	1743	2
0	9946	1744	3
0	9964	1747	1
0	9981	1749	1
0	10014	1753	1
0	10037	1756	1
0	10047	1757	1
0	10072	1761	1
0	10108	1769	1
0	10148	1779	1
0	10186	1785	1
0	10196	1786	1
0	10207	1787	1
0	10235	1793	1
0	10245	1794	2
0	10254	1795	3
0	10278	1802	1
0	10294	1805	1
0	10305	1807	1
0	10317	1809	1
0	10344	1815	1
0	10363	1817	1
0	10373	1818	2
0	10389	1820	1
0	10409	1825	1
0	10457	1834	1
0	10472	1839	1
0	10481	1841	1
0	10492	1844	1
0	10503	1846	1
0	10529	1851	5
0	10540	1852	1
0	10546	1853	2
0	10562	1856	1
0	10571	1858	1
0	10585	1860	1
0	10596	1862	1
0	10606	1863	1
0	10625	1869	1
0	10647	1871	1
0	10677	1875	1
0	10692	1877	1
0	10701	1878	2
0	10710	1880	1
0	10719	1882	1
0	10726	1883	1
0	10823	1900	1
0	10859	1907	1
0	10872	1910	1
0	10884	1912	1
0	10905	1917	3
0	10923	1921	1
0	10932	1923	1
0	10951	1929	1
0	10983	1936	1
0	11010	1941	1
0	11057	1948	1
0	11069	1949	2
0	11080	1950	1
0	11109	1954	1
0	11138	1959	1
0	11150	1960	1
0	11181	1964	1
0	11193	1966	1
0	11280	1982	1
0	11291	1983	1
0	11303	1984	2
0	11334	1990	1
0	11350	1991	1
0	11361	1992	2
0	11406	1997	7
0	11417	1998	6
0	11430	1999	7
0	11442	2000	2
0	11453	2001	2
0	11465	2002	3
0	11482	2004	1
0	11493	2005	1
0	11517	2008	1
0	11546	2012	1
0	11571	2021	1
0	11593	2025	1
0	11599	2026	2
0	11615	2029	1
0	11645	2034	1
0	11676	2042	1
0	11689	2046	1
0	11746	2057	1
0	11781	2062	1
0	11792	2063	1
0	11832	2071	1
0	11867	2076	1
0	11877	2077	2
0	11885	2078	3
0	11894	2079	3
0	12017	2107	1
0	12038	2112	1
0	12047	2113	2
0	12056	2114	1
0	12071	2119	1
0	12082	2121	1
0	12127	2128	1
0	12139	2129	2
0	12172	2133	1
0	12183	2134	1
0	12193	2135	1
0	12207	2137	1
0	12219	2138	2
0	12264	2144	1
0	12297	2148	1
0	12325	2153	3
0	12411	2169	1
0	12437	2174	1
0	12448	2177	1
0	12455	2178	1
0	12462	2179	1
0	12504	2190	1
0	12545	2203	1
0	12591	2211	1
0	12614	2215	1
0	12629	2219	1
0	12725	2236	1
0	12735	2237	2
0	12748	2238	3
0	12758	2239	2
0	12775	2241	1
0	12787	2242	1
0	12813	2246	1
0	12847	2251	1
0	12857	2252	2
0	12881	2257	6
0	12893	2259	1
0	12919	2263	1
0	12928	2264	2
0	12962	2270	1
0	13042	2281	1
0	13054	2282	1
0	13085	2286	1
0	13138	2304	1
0	13180	2313	1
0	13191	2314	2
0	13225	2319	1
0	13246	2323	1
0	13253	2324	1
0	13265	2327	1
0	13271	2328	2
0	13278	2329	1
0	13294	2332	1
0	13307	2336	1
0	13315	2337	1
0	13330	2342	6
0	13337	2343	1
0	13346	2345	1
0	13367	2353	1
0	13384	2358	1
0	13406	2362	1
0	13412	2363	2
0	13430	2366	1
0	13451	2369	1
0	13463	2371	1
0	13473	2372	1
0	13486	2373	1
0	13498	2374	2
0	13510	2375	1
0	13521	2376	1
0	13534	2377	1
0	13589	2388	1
0	13620	2392	1
0	13627	2393	1
0	13636	2395	1
0	13671	2400	1
0	13681	2401	2
0	13717	2406	1
0	13735	2409	1
0	13746	2412	1
0	13758	2413	1
0	13768	2414	2
0	13782	2417	1
0	13788	2418	2
0	13797	2420	1
0	13804	2421	1
0	13829	2426	1
0	13843	2428	1
0	13853	2429	2
0	13870	2431	1
0	13876	2432	2
0	13887	2433	1
0	13911	2436	1
0	13927	2439	1
0	13977	2455	1
0	14005	2460	5
0	14011	2461	5
0	14017	2462	3
0	14053	2469	1
0	14069	2472	1
0	14104	2478	1
0	14113	2480	1
0	14142	2487	1
0	14149	2488	1
0	14174	2494	1
0	14193	2496	1
0	14236	2504	1
0	14247	2505	1
0	14256	2506	2
0	14262	2507	2
0	14269	2508	1
0	14288	2511	1
0	14308	2514	1
0	14320	2516	1
0	14338	2519	1
0	14367	2524	1
0	14381	2526	1
0	14400	2533	1
0	14407	2534	1
0	14418	2537	1
0	14431	2540	1
0	14441	2541	1
0	14459	2545	1
0	14486	2552	1
0	14504	2555	1
0	14520	2557	1
0	14536	2561	1
0	14578	2567	1
0	14605	2573	1
0	14649	2581	1
0	14678	2584	1
0	14690	2585	2
0	14714	2588	1
0	14731	2590	1
0	14747	2594	1
0	14773	2599	1
0	14781	2600	1
0	14792	2601	2
0	14802	2602	2
0	14819	2605	1
0	14829	2606	2
0	14840	2607	1
0	14847	2608	2
0	14853	2609	2
0	14862	2611	1
0	14872	2612	1
0	14891	2618	1
0	14908	2623	1
0	14927	2626	1
0	14938	2627	1
0	14962	2630	1
0	14972	2631	1
0	15036	2643	1
0	15058	2649	1
0	15065	2650	1
0	15093	2657	1
0	15114	2659	1
0	15126	2660	2
0	15136	2661	3
0	15173	2666	1
0	15192	2670	1
0	15199	2671	2
0	15205	2672	2
0	15215	2673	1
0	15230	2677	1
0	15241	2679	1
0	15251	2680	1
0	15268	2682	1
0	15300	2687	1
0	15316	2690	1
0	15375	2699	1
0	15387	2700	1
0	15434	2709	1
0	15461	2715	1
0	15482	2719	1
0	15498	2724	6
0	15504	2725	7
0	15510	2726	8
0	15516	2727	7
0	15529	2730	1
0	15542	2731	1
0	15554	2732	1
0	15567	2733	2
0	15576	2734	2
0	15582	2735	3
0	15596	2737	1
0	15614	2740	1
0	15630	2744	1
0	15648	2748	1
0	15666	2750	1
0	15681	2751	1
0	15693	2752	1
0	15703	2753	2
0	15714	2754	1
0	15731	2756	1
0	15795	2771	1
0	15813	2775	1
0	15822	2777	1
0	15849	2781	1
0	15873	2785	1
0	15883	2786	1
0	15892	2787	1
0	15938	2796	1
0	15966	2804	1
0	15980	2807	1
0	16000	2810	1
0	16011	2811	1
0	16017	2812	2
0	16054	2817	1
0	16108	2830	1
0	16115	2831	1
0	16126	2834	1
0	16139	2838	1
0	16188	2844	1
0	16198	2845	2
0	16234	2850	5
0	16251	2852	1
0	16280	2857	1
0	16293	2858	1
0	16304	2859	1
0	16357	2869	1
0	16366	2871	1
0	16376	2872	1
0	16389	2875	1
0	16418	2882	1
0	16486	2898	1
0	16492	2899	2
0	16536	2907	1
0	16546	2908	2
0	16552	2909	2
0	16561	2911	1
0	16610	2921	1
0	16627	2923	1
0	16658	2927	1
0	16665	2928	1
0	16691	2933	1
0	16702	2935	1
0	16714	2937	1
0	16747	2946	1
0	16776	2953	1
0	16789	2957	1
0	16814	2961	1
0	16830	2963	1
0	16847	2965	1
0	16857	2966	1
0	16891	2970	1
0	16909	2972	1
0	16920	2973	1
0	16967	2981	1
0	16975	2982	1
0	16981	2983	2
0	16997	2985	1
0	17016	2987	1
0	17028	2989	1
0	17102	3001	1
0	17125	3006	2
0	17135	3007	1
0	17160	3013	1
0	17227	3027	1
0	17248	3031	1
0	17293	3037	1
0	17304	3038	2
0	17353	3046	1
0	17386	3054	1
0	17410	3059	1
0	17420	3060	2
0	17431	3061	2
0	17440	3062	1
0	17449	3064	1
0	17476	3070	1
0	17490	3072	1
0	17499	3074	1
0	17524	3078	1
0	17536	3079	1
0	17557	3083	1
0	17584	3088	1
0	17590	3089	2
0	17603	3092	1
0	17626	3094	1
0	17662	3099	1
0	17672	3100	1
0	17714	3107	1
0	17732	3110	1
0	17739	3111	1
0	17746	3112	1
0	17755	3114	1
0	17766	3117	1
0	17783	3123	1
0	17791	3124	1
0	17801	3125	2
0	17825	3128	1
0	17878	3138	1
0	17904	3145	1
0	17917	3146	1
0	17933	3148	1
0	17959	3153	1
0	17985	3157	1
0	18008	3160	1
0	18016	3161	1
0	18024	3162	2
0	18030	3163	2
0	18037	3164	3
0	18043	3165	2
0	18084	3173	1
0	18103	3176	1
0	18115	3177	2
0	18133	3180	1
0	18149	3183	1
0	18180	3187	1
0	18192	3188	2
0	18218	3191	1
0	18230	3192	1
0	18242	3193	1
0	18254	3194	1
0	18283	3199	1
0	18319	3204	4
0	18331	3206	1
0	18338	3207	1
0	18347	3209	1
0	18357	3211	1
0	18366	3212	2
0	18377	3214	1
0	18403	3222	1
0	18432	3231	1
0	18438	3232	2
0	18447	3234	1
0	18460	3237	1
0	18470	3238	2
0	18478	3239	3
0	18484	3240	3
0	18500	3243	1
0	18524	3250	1
0	18567	3257	1
0	18598	3261	1
0	18645	3268	1
0	18674	3273	2
0	18685	3274	1
0	18697	3276	1
0	18710	3279	1
0	18739	3286	1
0	18760	3290	1
0	18769	3292	1
0	18791	3297	1
0	18835	3305	1
0	18881	3318	1
0	18895	3322	1
0	18904	3323	2
0	18918	3325	1
0	18927	3326	2
0	18945	3330	1
0	18952	3331	1
0	18968	3334	1
0	18980	3336	1
0	19007	3340	1
0	19021	3342	1
0	19054	3349	1
0	19063	3351	1
0	19070	3352	1
0	19077	3353	1
0	19108	3361	1
0	19122	3363	1
0	19129	3364	1
0	19137	3365	1
0	19143	3366	2
0	19154	3369	1
0	19174	3372	1
0	19185	3373	2
0	19194	3374	2
0	19207	3378	1
0	19216	3380	1
0	19225	3382	1
0	19236	3385	1
0	19281	3394	1
0	19293	3396	1
0	19302	3398	1
0	19332	3405	1
0	19350	3409	1
0	19408	3421	1
0	19417	3422	2
0	19424	3423	3
0	19430	3424	2
0	19437	3425	1
0	19527	3445	1
0	19547	3450	1
0	19568	3453	1
0	19586	3456	1
0	19596	3457	1
0	19645	3465	1
0	19686	3472	1
0	19693	3473	1
0	19700	3474	1
0	19709	3476	1
0	19751	3482	1
0	19761	3483	1
0	19777	3485	1
0	19808	3490	4
0	19826	3493	1
0	19854	3496	1
0	19872	3498	1
0	19884	3499	1
0	19893	3500	2
0	19904	3501	1
0	19912	3502	2
0	19935	3506	1
0	19953	3510	1
0	19966	3512	1
0	19988	3515	1
0	20012	3518	1
0	20021	3519	2
0	20037	3521	1
0	20059	3528	1
0	20066	3529	1
0	20096	3534	1
0	20103	3535	1
0	20129	3542	1
0	20149	3547	5
0	20155	3548	4
0	20166	3550	1
0	20186	3556	1
0	20223	3566	1
0	20250	3572	1
0	20260	3573	1
0	20276	3575	1
0	20286	3576	1
0	20295	3578	1
0	20304	3580	1
0	20318	3582	1
0	20325	3583	1
0	20336	3586	1
0	20349	3589	1
0	20361	3590	1
0	20371	3591	1
0	20385	3593	1
0	20419	3600	1
0	20446	3604	1
0	20482	3609	6
0	20492	3610	4
0	20515	3614	1
0	20529	3616	1
0	20547	3621	1
0	20556	3623	1
0	20565	3625	1
0	20576	3627	1
0	20610	3634	1
0	20620	3635	1
0	20627	3636	1
0	20638	3639	1
0	20647	3641	1
0	20654	3642	1
0	20667	3646	1
0	20674	3647	1
0	20683	3649	1
0	20691	3650	1
0	20698	3651	2
0	20704	3652	2
0	20747	3662	1
0	20761	3664	1
0	20771	3665	1
0	20845	3680	1
0	20856	3681	1
0	20931	3700	1
0	20948	3705	1
0	20971	3710	1
0	20996	3714	1
0	21021	3720	1
0	21050	3726	1
0	21062	3728	1
0	21078	3731	1
0	21096	3735	1
0	21179	3754	1
0	21186	3755	1
0	21232	3768	1
0	21271	3775	1
0	21309	3783	1
0	21319	3784	1
0	21388	3794	1
0	21406	3797	1
0	21449	3805	1
0	21462	3807	1
0	21473	3808	2
0	21483	3809	2
0	21492	3810	1
0	21499	3811	1
0	21523	3814	1
0	21535	3815	2
0	21553	3818	1
0	21566	3822	1
0	21616	3832	1
0	21658	3843	1
0	21669	3846	1
0	21738	3863	1
0	21751	3867	1
0	21766	3871	1
0	21789	3875	1
0	21801	3876	1
0	21827	3881	5
0	21841	3883	1
0	21862	3886	1
0	21899	3897	1
0	21913	3900	1
0	21931	3903	1
0	21977	3911	1
0	21997	3913	1
0	22015	3916	1
0	22024	3918	1
0	22035	3919	1
0	22057	3922	1
0	22064	3923	1
0	22088	3930	1
0	22104	3933	1
0	22124	3938	1
0	22183	3951	1
0	22203	3954	1
0	22217	3957	1
0	22226	3959	1
0	22258	3964	4
0	22264	3965	2
0	22275	3968	1
0	22284	3970	1
0	22323	3976	1
0	22337	3978	1
0	22380	3984	1
0	22426	3996	1
0	22450	4002	1
0	22476	4006	1
0	22505	4010	1
0	22514	4011	2
0	22526	4012	1
0	22553	4016	1
0	22563	4017	1
0	22587	4023	1
0	22631	4033	1
0	22637	4034	2
0	22649	4035	1
0	22666	4037	1
0	22709	4042	5
0	22775	4055	1
0	22786	4058	1
0	22799	4062	1
0	22809	4063	1
0	22829	4067	1
0	22890	4077	1
0	22901	4078	2
0	22930	4084	1
0	22946	4087	1
0	22957	4088	1
0	22967	4089	2
0	22984	4091	1
0	22998	4093	1
0	23010	4095	1
0	23020	4096	1
0	23042	4100	1
0	23054	4102	1
0	23072	4104	1
0	23083	4105	1
0	23114	4110	5
0	23123	4111	2
0	23137	4114	1
0	23146	4115	2
0	23158	4118	1
0	23164	4119	2
0	23173	4121	1
0	23180	4122	1
0	23196	4125	1
0	23210	4127	1
0	23221	4129	1
0	23248	4132	1
0	23265	4134	1
0	23275	4135	2
0	23292	4137	1
0	23321	4142	1
0	23333	4143	2
0	23344	4144	1
0	23363	4146	1
0	23373	4147	2
0	23398	4152	4
0	23410	4153	4
0	23421	4154	3
0	23450	4158	1
0	23474	4162	1
0	23485	4163	1
0	23504	4166	1
0	23526	4172	1
0	23544	4175	1
0	23558	4177	1
0	23571	4178	1
0	23580	4179	2
0	23587	4180	1
0	23596	4182	1
0	23609	4186	1
0	23634	4194	1
0	23652	4196	1
0	23662	4197	2
0	23669	4198	2
0	23675	4199	2
0	23704	4204	4
0	23713	4205	4
0	23724	4207	1
0	23734	4208	1
0	23771	4215	1
0	23783	4216	1
0	23810	4221	1
0	23827	4227	1
0	23859	4232	1
0	23869	4233	1
0	23879	4234	1
0	23913	4239	1
0	23927	4242	1
0	23946	4245	1
0	23957	4246	1
0	23967	4247	1
0	23977	4249	1
0	23986	4250	2
0	24024	4257	1
0	24044	4260	1
0	24060	4265	6
0	24070	4266	6
0	24078	4267	2
0	24093	4271	1
0	24140	4282	1
0	24180	4288	1
0	24189	4290	1
0	24198	4292	1
0	24271	4305	1
0	24281	4306	1
0	24298	4312	1
0	24305	4313	1
0	24312	4314	1
0	24328	4317	1
0	24339	4320	1
0	24353	4323	1
0	24363	4324	2
0	24370	4325	2
0	24379	4326	2
0	24409	4330	1
0	24434	4335	5
0	24443	4336	6
0	24449	4337	7
0	24497	4343	1
0	24526	4347	1
0	24540	4349	1
0	24554	4351	1
0	24576	4356	1
0	24589	4357	1
0	24627	4363	1
0	24636	4364	2
0	24677	4376	1
0	24690	4379	1
0	24703	4380	1
0	24714	4381	2
0	24727	4382	1
0	24747	4386	1
0	24759	4387	1
0	24784	4391	1
0	24872	4411	1
0	24889	4416	5
0	24895	4417	3
0	24909	4419	1
0	24918	4421	1
0	24925	4422	1
0	24937	4424	1
0	24949	4425	2
0	24960	4426	1
0	24995	4430	1
0	25010	4431	2
0	25020	4432	2
0	25030	4433	3
0	25041	4434	4
0	25057	4438	1
0	25066	4440	1
0	25080	4442	1
0	25114	4448	1
0	25128	4450	1
0	25140	4452	1
0	25158	4455	1
0	25180	4460	5
0	25198	4462	1
0	25204	4463	2
0	25210	4464	3
0	25219	4466	1
0	25226	4467	1
0	25242	4470	1
0	25249	4471	1
0	25258	4473	1
0	25269	4474	1
0	25278	4475	2
0	25284	4476	2
0	25308	4483	1
0	25318	4484	1
0	25332	4486	1
0	25343	4487	1
0	25362	4490	1
0	25375	4494	1
0	25389	4496	1
0	25407	4498	1
0	25451	4503	6
0	25461	4504	4
0	25473	4505	4
0	25484	4506	2
0	25515	4510	1
0	25538	4516	1
0	25547	4517	2
0	25557	4518	1
0	25599	4528	1
0	25608	4530	1
0	25619	4533	1
0	25630	4534	1
0	25656	4539	1
0	25732	4550	1
0	25779	4557	1
0	25811	4564	1
0	25840	4570	1
0	25887	4582	1
0	25900	4586	1
0	25921	4589	1
0	25948	4594	4
0	25955	4595	2
0	25961	4596	2
0	25974	4600	1
0	25986	4602	1
0	26002	4604	1
0	26016	4606	1
0	26026	4607	2
0	26042	4609	1
0	26052	4610	1
0	26080	4617	1
0	26091	4618	1
0	26097	4619	2
0	26107	4621	1
0	26116	4622	2
0	26144	4626	1
0	26155	4627	1
0	26174	4629	1
0	26180	4630	2
0	26186	4631	3
0	26209	4637	1
0	26219	4638	1
0	26230	4640	1
0	26242	4642	1
0	26258	4644	1
0	26271	4648	1
0	26278	4649	1
0	26291	4653	1
0	26314	4659	1
0	26320	4660	2
0	26327	4661	1
0	26365	4670	1
0	26376	4673	1
0	26407	4678	1
0	26416	4679	2
0	26436	4683	1
0	26447	4686	1
0	26464	4692	1
0	26471	4693	1
0	26487	4696	1
0	26504	4701	4
0	26513	4702	3
0	26554	4714	1
0	26561	4715	1
0	26572	4718	1
0	26583	4719	1
0	26595	4720	2
0	26603	4721	2
0	26624	4724	1
0	26646	4730	1
0	26669	4734	1
0	26694	4741	1
0	26703	4742	2
0	26714	4744	1
0	26730	4747	1
0	26742	4748	1
0	26779	4754	1
0	26813	4760	1
0	26841	4765	1
0	26882	4773	1
0	26905	4778	5
0	26911	4779	2
0	26917	4780	3
0	26938	4787	1
0	26975	4793	1
0	26992	4795	1
0	27015	4798	1
0	27034	4802	1
0	27043	4803	2
0	27052	4805	1
0	27067	4807	1
0	27073	4808	2
0	27091	4812	1
0	27108	4815	1
0	27115	4816	2
0	27121	4817	2
0	27157	4825	1
0	27167	4827	1
0	27174	4828	2
0	27180	4829	2
0	27202	4834	5
0	27208	4835	2
0	27244	4843	1
0	27253	4845	1
0	27268	4849	1
0	27296	4855	1
0	27309	4856	2
0	27320	4857	2
0	27332	4858	2
0	27406	4874	1
0	27413	4875	1
0	27424	4877	1
0	27438	4878	1
0	27460	4881	1
0	27469	4882	1
0	27475	4883	2
0	27481	4884	3
0	27509	4892	1
0	27574	4903	1
0	27590	4905	1
0	27615	4910	3
0	27621	4911	4
0	27634	4915	1
0	27657	4918	1
0	27668	4919	1
0	27679	4920	2
0	27763	4932	1
0	27835	4947	1
0	27868	4951	1
0	27889	4955	1
0	27902	4959	1
0	27914	4960	1
0	27926	4961	1
0	27936	4962	2
0	27949	4965	1
0	27992	4974	1
0	28015	4977	1
0	28036	4981	1
0	28043	4982	1
0	28053	4983	1
0	28071	4988	3
0	28082	4991	1
0	28089	4992	1
0	28096	4993	1
0	28106	4995	1
0	28112	4996	2
0	28122	4997	1
1	2277	401	1
1	2277	401	0
1	2292	403	1
1	2292	403	0
1	2293	403	1
1	2299	404	0
1	2318	407	1
1	2318	407	0
1	2340	410	1
1	2340	410	0
1	2368	416	1
1	2368	416	0
1	2369	416	1
1	2375	417	0
1	2392	421	1
1	2392	421	0
1	2435	428	1
1	2435	428	0
1	2442	429	1
1	2444	429	0
1	2475	435	1
1	2475	435	0
1	2484	436	1
1	2486	436	0
1	2493	437	1
1	2496	437	0
1	2509	439	1
1	2509	439	0
1	2523	441	1
1	2523	441	0
1	2562	451	1
1	2562	451	0
1	2605	460	1
1	2605	460	0
1	2631	463	1
1	2631	463	0
1	2642	465	1
1	2642	465	0
1	2668	471	1
1	2668	471	0
1	2712	481	1
1	2712	481	0
1	2719	482	1
1	2723	482	0
1	2730	483	1
1	2734	483	0
1	2741	484	1
1	2745	484	0
1	2757	486	1
1	2757	486	0
1	2764	487	1
1	2766	487	0
1	2777	490	1
1	2777	490	0
1	2793	493	1
1	2793	493	0
1	2810	495	1
1	2810	495	0
1	2811	495	1
1	2822	496	0
1	2841	502	1
1	2841	502	0
1	2864	506	1
1	2864	506	0
1	2865	506	1
1	2871	507	0
1	2876	508	1
1	2878	508	0
1	2911	513	1
1	2911	513	0
1	2921	515	1
1	2939	518	0
1	2940	518	1
1	2945	519	2
1	2947	519	1
1	2953	520	0
1	2962	522	1
1	2962	522	0
1	2963	522	1
1	2969	523	0
1	2980	526	1
1	2980	526	0
1	2985	527	1
1	2989	527	0
1	2996	528	1
1	3001	528	0
1	3029	533	1
1	3029	533	0
1	3030	533	1
1	3040	534	0
1	3061	539	1
1	3061	539	0
1	3062	539	1
1	3069	540	0
1	3082	542	1
1	3082	542	0
1	3125	551	1
1	3125	551	0
1	3130	552	1
1	3133	552	0
1	3175	561	1
1	3175	561	0
1	3194	564	1
1	3194	564	0
1	3205	565	1
1	3207	565	0
1	3216	566	1
1	3218	566	0
1	3276	579	1
1	3276	579	0
1	3296	584	1
1	3296	584	0
1	3314	586	1
1	3314	586	0
1	3315	586	1
1	3326	587	0
1	3333	588	1
1	3335	588	0
1	3355	593	1
1	3355	593	0
1	3360	594	1
1	3362	594	0
1	3367	595	1
1	3369	595	0
1	3374	596	1
1	3375	596	2
1	3377	596	1
1	3383	597	0
1	3388	598	1
1	3389	598	2
1	3393	598	1
1	3403	599	0
1	3429	605	1
1	3429	605	0
1	3455	613	1
1	3455	613	0
1	3460	614	1
1	3461	614	2
1	3464	614	1
1	3474	615	0
1	3489	618	1
1	3489	618	0
1	3498	619	1
1	3500	619	0
1	3532	625	1
1	3532	625	0
1	3533	625	1
1	3545	626	0
1	3554	627	1
1	3556	627	0
1	3578	631	1
1	3584	632	0
1	3585	632	1
1	3595	633	0
1	3610	635	1
1	3610	635	0
1	3644	642	1
1	3644	642	0
1	3645	642	1
1	3650	643	2
1	3653	643	1
1	3660	644	2
1	3666	644	1
1	3677	645	0
1	3715	650	1
1	3715	650	0
1	3784	662	1
1	3784	662	0
1	3785	662	1
1	3790	663	2
1	3792	663	1
1	3798	664	0
1	3851	679	1
1	3851	679	0
1	3858	680	1
1	3860	680	0
1	3872	682	1
1	3872	682	0
1	3885	685	1
1	3885	685	0
1	3911	693	1
1	3911	693	0
1	3981	703	1
1	3981	703	0
1	4026	710	1
1	4026	710	0
1	4060	714	1
1	4060	714	0
1	4098	719	1
1	4098	719	0
1	4099	719	1
1	4128	724	0
1	4152	728	1
1	4152	728	0
1	4157	729	1
1	4158	729	2
1	4161	729	1
1	4168	730	2
1	4172	730	1
1	4177	731	2
1	4179	731	1
1	4184	732	2
1	4188	732	1
1	4199	733	0
1	4218	736	1
1	4218	736	0
1	4219	736	1
1	4229	737	0
1	4256	741	1
1	4256	741	0
1	4272	743	1
1	4272	743	0
1	4283	744	1
1	4284	744	2
1	4288	744	1
1	4297	745	2
1	4300	745	1
1	4310	746	0
1	4358	754	1
1	4358	754	0
1	4359	754	1
1	4370	755	0
1	4424	764	1
1	4424	764	0
1	4425	764	1
1	4435	765	0
1	4450	767	1
1	4450	767	0
1	4455	768	1
1	4457	768	0
1	4476	773	1
1	4476	773	0
1	4499	776	1
1	4499	776	0
1	4532	781	1
1	4532	781	0
1	4585	789	1
1	4585	789	0
1	4601	792	1
1	4601	792	0
1	4614	794	1
1	4614	794	0
1	4648	799	1
1	4648	799	0
1	4670	804	1
1	4670	804	0
1	4675	805	1
1	4677	805	0
1	4682	806	1
1	4684	806	0
1	4697	810	1
1	4697	810	0
1	4715	812	1
1	4715	812	0
1	4734	816	1
1	4734	816	0
1	4801	825	1
1	4801	825	0
1	4827	828	1
1	4827	828	0
1	4851	832	1
1	4851	832	0
1	4871	837	1
1	4871	837	0
1	4872	837	1
1	4878	838	0
1	4887	840	1
1	4887	840	0
1	4903	843	1
1	4903	843	0
1	4908	844	1
1	4917	846	2
1	4922	847	3
1	4926	848	2
1	4933	849	1
1	4940	850	2
1	4941	850	3
1	4942	850	4
1	4947	850	3
1	4957	851	2
1	4963	852	1
1	4969	853	0
1	4974	854	1
1	4976	854	0
1	4988	856	1
1	4988	856	0
1	4999	858	1
1	4999	858	0
1	5010	861	1
1	5010	861	0
1	5021	864	1
1	5021	864	0
1	5026	865	1
1	5028	865	0
1	5052	872	1
1	5052	872	0
1	5060	873	1
1	5061	873	2
1	5063	873	1
1	5070	874	2
1	5072	874	1
1	5078	875	0
1	5089	878	1
1	5089	878	0
1	5094	879	1
1	5096	879	0
1	5111	884	1
1	5111	884	0
1	5124	888	1
1	5124	888	0
1	5129	889	1
1	5143	891	2
1	5155	893	1
1	5165	894	0
1	5172	895	1
1	5175	895	0
1	5204	900	1
1	5204	900	0
1	5221	902	1
1	5221	902	0
1	5236	904	1
1	5236	904	0
1	5257	909	1
1	5257	909	0
1	5266	911	1
1	5266	911	0
1	5267	911	1
1	5273	912	0
1	5296	916	1
1	5296	916	0
1	5301	917	1
1	5303	917	0
1	5312	919	1
1	5312	919	0
1	5320	920	1
1	5322	920	0
1	5369	931	1
1	5369	931	0
1	5385	933	1
1	5385	933	0
1	5409	940	1
1	5409	940	0
1	5418	942	1
1	5418	942	0
1	5430	944	1
1	5430	944	0
1	5479	951	1
1	5479	951	0
1	5497	954	1
1	5497	954	0
1	5498	954	1
1	5515	958	2
1	5519	959	1
1	5525	960	0
1	5542	966	1
1	5542	966	0
1	5561	969	1
1	5561	969	0
1	5562	969	1
1	5570	970	0
1	5575	971	1
1	5576	971	2
1	5579	971	1
1	5589	972	0
1	5601	974	1
1	5601	974	0
1	5667	984	1
1	5667	984	0
1	5685	986	1
1	5685	986	0
1	5686	986	1
1	5694	987	0
1	5721	993	1
1	5721	993	0
1	5729	994	1
1	5731	994	0
1	5751	999	1
1	5751	999	0
1	5821	1013	1
1	5821	1013	0
1	5822	1013	1
1	5831	1014	0
1	5842	1016	1
1	5842	1016	0
1	5851	1018	1
1	5851	1018	0
1	5877	1022	1
1	5877	1022	0
1	5899	1025	1
1	5899	1025	0
1	5954	1034	1
1	5954	1034	0
1	5983	1042	1
1	5983	1042	0
1	6003	1046	1
1	6003	1046	0
1	6012	1048	1
1	6012	1048	0
1	6052	1054	1
1	6052	1054	0
1	6075	1057	1
1	6075	1057	0
1	6096	1060	1
1	6096	1060	0
1	6133	1065	1
1	6133	1065	0
1	6142	1066	1
1	6144	1066	0
1	6153	1067	1
1	6155	1067	0
1	6164	1068	1
1	6166	1068	0
1	6190	1072	1
1	6190	1072	0
1	6191	1072	1
1	6196	1073	2
1	6197	1073	3
1	6200	1073	2
1	6210	1074	1
1	6216	1075	0
1	6225	1077	1
1	6225	1077	0
1	6241	1080	1
1	6241	1080	0
1	6268	1086	1
1	6268	1086	0
1	6273	1087	1
1	6277	1087	0
1	6284	1088	1
1	6288	1088	0
1	6304	1090	1
1	6311	1091	2
1	6319	1093	1
1	6328	1094	0
1	6341	1097	1
1	6341	1097	0
1	6349	1098	1
1	6351	1098	0
1	6367	1101	1
1	6367	1101	0
1	6383	1103	1
1	6383	1103	0
1	6384	1103	1
1	6393	1104	2
1	6396	1104	1
1	6406	1105	0
1	6415	1106	1
1	6420	1106	0
1	6444	1109	1
1	6444	1109	0
1	6445	1109	1
1	6446	1109	2
1	6457	1110	1
1	6467	1111	0
1	6474	1112	1
1	6476	1112	0
1	6502	1116	1
1	6502	1116	0
1	6523	1121	1
1	6523	1121	0
1	6524	1121	1
1	6537	1122	0
1	6546	1123	1
1	6548	1123	0
1	6576	1127	1
1	6576	1127	0
1	6597	1133	1
1	6597	1133	0
1	6598	1133	1
1	6608	1134	0
1	6615	1135	1
1	6625	1137	2
1	6637	1139	1
1	6643	1140	0
1	6652	1142	1
1	6652	1142	0
1	6668	1145	1
1	6668	1145	0
1	6673	1146	1
1	6676	1146	0
1	6689	1148	1
1	6689	1148	0
1	6713	1153	1
1	6713	1153	0
1	6770	1162	1
1	6770	1162	0
1	6787	1165	1
1	6787	1165	0
1	6867	1175	1
1	6867	1175	0
1	6954	1187	1
1	6954	1187	0
1	6964	1188	1
1	6966	1188	0
1	6989	1191	1
1	6989	1191	0
1	6990	1191	1
1	7000	1192	2
1	7002	1192	1
1	7011	1193	2
1	7013	1193	1
1	7021	1194	0
1	7026	1195	1
1	7028	1195	0
1	7033	1196	1
1	7038	1196	0
1	7045	1197	1
1	7049	1197	0
1	7056	1198	1
1	7057	1198	2
1	7062	1198	1
1	7076	1200	2
1	7095	1203	1
1	7105	1204	0
1	7120	1208	1
1	7120	1208	0
1	7129	1210	1
1	7129	1210	0
1	7134	1211	1
1	7135	1211	2
1	7136	1211	3
1	7138	1211	2
1	7144	1212	1
1	7150	1213	0
1	7159	1215	1
1	7159	1215	0
1	7178	1218	1
1	7178	1218	0
1	7185	1219	1
1	7187	1219	0
1	7203	1221	1
1	7203	1221	0
1	7226	1224	1
1	7226	1224	0
1	7235	1225	1
1	7237	1225	0
1	7269	1231	1
1	7269	1231	0
1	7276	1232	1
1	7278	1232	0
1	7295	1238	1
1	7295	1238	0
1	7328	1248	1
1	7328	1248	0
1	7359	1253	1
1	7359	1253	0
1	7390	1258	1
1	7390	1258	0
1	7391	1258	1
1	7392	1258	2
1	7401	1259	1
1	7411	1261	2
1	7422	1264	1
1	7430	1265	0
1	7464	1272	1
1	7464	1272	0
1	7519	1280	1
1	7519	1280	0
1	7536	1283	1
1	7536	1283	0
1	7537	1283	1
1	7543	1284	0
1	7552	1286	1
1	7552	1286	0
1	7561	1288	1
1	7561	1288	0
1	7566	1289	1
1	7568	1289	0
1	7577	1291	1
1	7577	1291	0
1	7603	1295	1
1	7603	1295	0
1	7703	1314	1
1	7703	1314	0
1	7704	1314	1
1	7713	1315	0
1	7724	1317	1
1	7724	1317	0
1	7737	1321	1
1	7737	1321	0
1	7753	1325	1
1	7753	1325	0
1	7800	1331	1
1	7800	1331	0
1	7837	1341	1
1	7837	1341	0
1	7842	1342	1
1	7843	1342	2
1	7845	1342	1
1	7851	1343	0
1	7879	1349	1
1	7879	1349	0
1	7900	1357	1
1	7900	1357	0
1	7926	1362	1
1	7926	1362	0
1	7935	1363	1
1	7937	1363	0
1	7992	1373	1
1	7992	1373	0
1	7997	1374	1
1	7999	1374	0
1	8008	1376	1
1	8008	1376	0
1	8029	1384	1
1	8029	1384	0
1	8050	1388	1
1	8050	1388	0
1	8057	1389	1
1	8059	1389	0
1	8072	1393	1
1	8072	1393	0
1	8077	1394	1
1	8079	1394	0
1	8106	1405	1
1	8106	1405	0
1	8111	1406	1
1	8113	1406	0
1	8118	1407	1
1	8120	1407	0
1	8125	1408	1
1	8128	1408	0
1	8175	1417	1
1	8175	1417	0
1	8193	1421	1
1	8193	1421	0
1	8202	1423	1
1	8202	1423	0
1	8222	1426	1
1	8222	1426	0
1	8256	1432	1
1	8256	1432	0
1	8261	1433	1
1	8265	1433	0
1	8289	1437	1
1	8289	1437	0
1	8290	1437	1
1	8298	1438	0
1	8313	1443	1
1	8313	1443	0
1	8322	1445	1
1	8322	1445	0
1	8327	1446	1
1	8329	1446	0
1	8334	1447	1
1	8335	1447	2