version 3
run Experimentos-874-20260514-09:21:40-7799
attr configname Experimentos
attr datetime 20260514-09:21:40
attr datetimef 20260514-092140
attr experiment Experimentos
attr inifile TwoQueues.ini
attr iterationvars "$p=0.7, $q=0.3, $Y=20, $m=5"
attr iterationvarsd p=0.7/q=0.3/Y=20/m=5
attr iterationvarsf p=0.7,q=0.3,Y=20,m=5-
attr measurement "$p=0.7, $q=0.3, $Y=20, $m=5"
attr network TwoQueues
attr processid 7799
attr repetition 14
attr replication #14
attr resultdir results
attr runnumber 874
attr seedset 874
itervar Y 20
itervar m 5
itervar p 0.7
itervar q 0.3
config description "Barrido completo de parámetros Proyecto 12"
config **.source1.p 0.7
config **.source1.q 0.2
config **.source2.p 0.6
config **.source2.q 0.3
config **.serverWithMaintenance.Y 20
config **.serverWithMaintenance.m 5
config network TwoQueues
config cpu-time-limit 5000s
config sim-time-limit 5000s
config warmup-period 400s
config repeat 20
config output-scalar-file results/Experimentos-p=0.7,q=0.3,Y=20,m=5--#14.sca
config output-vector-file results/Experimentos-p=0.7,q=0.3,Y=20,m=5--#14.vec
config **.vector-recording true

vector 0 TwoQueues.serverWithMaintenance residenceTime2:vector ETV
attr recordingmode vector
attr source delay2
attr title "Residence Time Class 2"
vector 1 TwoQueues.queue2 queueLengthStats:vector ETV
attr recordingmode vector
attr source qlen
attr title "Average Queue Length"
vector 2 TwoQueues.queue1 queueLengthStats:vector ETV
attr recordingmode vector
attr source qlen
attr title "Average Queue Length"
vector 3 TwoQueues.server residenceTime1:vector ETV
attr recordingmode vector
attr source delay1
attr title "Residence Time Class 1"
vector 4 TwoQueues.server throughputStats1:vector ETV
attr recordingmode vector
attr source throughput1
attr title "Throughput Class 1"
0	2431	400	5
0	2441	401	5
0	2452	402	4
0	2460	403	4
0	2466	404	4
0	2475	406	1
0	2486	409	1
0	2493	410	1
0	2500	411	1
0	2514	413	1
0	2535	417	1
0	2553	419	1
0	2563	420	1
0	2577	422	1
0	2603	430	1
0	2627	436	6
0	2633	437	2
0	2644	440	1
0	2651	441	1
0	2676	445	1
0	2688	447	1
0	2713	451	1
0	2723	452	1
0	2749	455	1
0	2761	456	2
0	2771	457	2
0	2780	458	3
0	2802	463	1
0	2842	470	1
0	2853	471	2
0	2922	489	1
0	2945	492	1
0	2951	493	2
0	2957	494	3
0	2975	498	1
0	3006	504	6
0	3015	505	7
0	3023	506	7
0	3032	507	4
0	3045	509	1
0	3067	513	1
0	3073	514	2
0	3082	516	1
0	3089	517	1
0	3121	523	1
0	3128	524	1
0	3153	528	1
0	3186	532	1
0	3198	534	1
0	3225	540	1
0	3235	541	1
0	3250	545	1
0	3257	546	1
0	3266	548	1
0	3293	554	1
0	3311	560	2
0	3347	567	1
0	3359	569	1
0	3382	575	1
0	3389	576	2
0	3396	577	2
0	3402	578	2
0	3409	579	1
0	3420	581	1
0	3430	582	1
0	3439	584	1
0	3460	587	1
0	3471	589	1
0	3487	593	1
0	3494	594	1
0	3507	598	1
0	3548	605	1
0	3558	606	1
0	3584	610	1
0	3618	614	1
0	3654	620	7
0	3681	627	1
0	3692	630	1
0	3722	634	1
0	3752	640	1
0	3785	644	1
0	3800	645	1
0	3838	650	1
0	3892	657	1
0	3902	658	2
0	3919	660	1
0	3947	666	1
0	3972	670	1
0	4008	679	1
0	4027	681	1
0	4043	683	1
0	4050	684	1
0	4064	686	1
0	4116	693	1
0	4127	694	1
0	4160	700	6
0	4174	703	1
0	4190	706	1
0	4207	712	1
0	4220	715	1
0	4238	717	1
0	4244	718	2
0	4294	728	1
0	4301	729	1
0	4319	733	1
0	4329	734	1
0	4340	736	1
0	4351	739	1
0	4381	743	1
0	4400	745	1
0	4421	748	1
0	4449	752	1
0	4462	753	1
0	4516	760	1
0	4543	764	1
0	4564	770	5
0	4576	772	1
0	4622	780	1
0	4695	793	1
0	4706	796	1
0	4715	798	1
0	4726	801	1
0	4746	805	1
0	4781	813	1
0	4792	814	2
0	4828	822	1
0	4851	825	1
0	4861	826	1
0	4877	828	1
0	4912	839	1
0	4919	840	1
0	4929	841	1
0	4947	844	1
0	4956	846	1
0	4986	850	1
0	5015	856	7
0	5026	857	8
0	5036	858	1
0	5053	864	1
0	5061	865	1
0	5067	866	2
0	5076	868	1
0	5087	871	1
0	5116	877	1
0	5130	880	1
0	5143	884	1
0	5208	898	1
0	5220	900	1
0	5234	902	1
0	5244	903	1
0	5263	905	1
0	5287	911	1
0	5303	913	1
0	5316	914	1
0	5325	915	2
0	5352	921	5
0	5363	922	6
0	5373	923	3
0	5380	924	2
0	5386	925	2
0	5397	928	1
0	5416	931	1
0	5427	932	1
0	5473	939	1
0	5506	945	1
0	5523	947	1
0	5534	948	1
0	5569	953	1
0	5581	955	1
0	5664	973	1
0	5683	976	1
0	5730	983	1
0	5749	986	1
0	5755	987	2
0	5766	989	1
0	5803	995	5
0	5809	996	4
0	5816	997	1
0	5828	998	1
0	5854	1001	1
0	5864	1002	2
0	5889	1006	1
0	5913	1013	1
0	5923	1014	1
0	5945	1019	1
0	5969	1026	1
0	6002	1034	1
0	6041	1042	1
0	6052	1043	1
0	6102	1051	1
0	6133	1058	1
0	6141	1059	1
0	6147	1060	2
0	6179	1066	1
0	6197	1070	1
0	6235	1076	5
0	6245	1077	5
0	6254	1078	6
0	6282	1089	1
0	6290	1090	2
0	6296	1091	2
0	6305	1092	3
0	6321	1094	1
0	6328	1095	1
0	6349	1100	1
0	6355	1101	2
0	6366	1102	1
0	6427	1110	1
0	6474	1116	1
0	6491	1118	1
0	6518	1123	1
0	6529	1124	2
0	6563	1129	1
0	6579	1133	1
0	6615	1141	1
0	6659	1150	1
0	6680	1153	1
0	6700	1156	1
0	6711	1157	2
0	6720	1158	2
0	6747	1163	1
0	6762	1165	1
0	6823	1178	1
0	6832	1179	2
0	6847	1181	1
0	6856	1182	2
0	6869	1185	1
0	6899	1189	1
0	6913	1192	1
0	6923	1193	1
0	6950	1198	1
0	6959	1200	1
0	6970	1203	1
0	6985	1208	1
0	7000	1213	1
0	7022	1219	3
0	7032	1220	2
0	7044	1222	1
0	7056	1223	1
0	7069	1224	1
0	7087	1226	1
0	7124	1231	1
0	7136	1232	1
0	7148	1234	1
0	7155	1235	1
0	7164	1237	1
0	7222	1252	1
0	7234	1253	1
0	7246	1254	1
0	7257	1255	2
0	7275	1259	1
0	7289	1260	1
0	7313	1263	1
0	7323	1264	1
0	7339	1267	1
0	7371	1274	1
0	7383	1275	1
0	7389	1276	2
0	7399	1277	3
0	7439	1284	1
0	7460	1288	1
0	7471	1289	2
0	7536	1299	1
0	7548	1301	1
0	7575	1307	1
0	7582	1308	1
0	7589	1309	1
0	7615	1317	1
0	7626	1320	1
0	7644	1323	1
0	7746	1340	1
0	7783	1345	1
0	7795	1346	1
0	7809	1348	1
0	7821	1350	1
0	7845	1356	4
0	7851	1357	2
0	7861	1358	1
0	7892	1363	1
0	7907	1364	1
0	7920	1365	2
0	7931	1366	2
0	7968	1371	1
0	7979	1372	1
0	7997	1375	1
0	8012	1379	1
0	8022	1380	1
0	8057	1387	1
0	8063	1388	2
0	8070	1389	1
0	8086	1391	1
0	8124	1397	1
0	8142	1400	1
0	8172	1405	1
0	8200	1410	1
0	8255	1418	1
0	8272	1420	1
0	8313	1425	1
0	8357	1431	1
0	8370	1432	1
0	8392	1437	1
0	8401	1439	1
0	8422	1442	1
0	8435	1446	1
0	8442	1447	1
0	8470	1456	1
0	8507	1462	1
0	8517	1463	1
0	8536	1469	1
0	8560	1475	1
0	8576	1479	1
0	8597	1483	1
0	8607	1484	2
0	8613	1485	2
0	8636	1489	1
0	8686	1500	1
0	8696	1501	1
0	8703	1502	1
0	8721	1505	1
0	8734	1506	1
0	8771	1516	1
0	8794	1520	1
0	8807	1521	1
0	8817	1522	2
0	8853	1529	1
0	8859	1530	2
0	8905	1538	1
0	8917	1540	1
0	8969	1550	1
0	8981	1551	1
0	9004	1554	1
0	9016	1556	1
0	9029	1560	1
0	9070	1571	1
0	9096	1576	1
0	9138	1582	6
0	9149	1583	7
0	9159	1584	7
0	9169	1585	2
0	9177	1586	2
0	9186	1588	1
0	9235	1595	1
0	9246	1597	1
0	9297	1606	1
0	9321	1609	1
0	9354	1614	1
0	9365	1615	2
0	9375	1616	2
0	9384	1617	1
0	9396	1619	1
0	9414	1622	1
0	9421	1623	1
0	9430	1625	1
0	9452	1630	1
0	9527	1645	1
0	9564	1651	3
0	9571	1652	3
0	9578	1653	2
0	9585	1654	2
0	9591	1655	2
0	9600	1657	1
0	9629	1663	1
0	9639	1664	1
0	9664	1669	1
0	9675	1671	1
0	9685	1672	1
0	9701	1675	1
0	9708	1676	1
0	9724	1678	1
0	9739	1680	1
0	9750	1681	2
0	9761	1682	2
0	9773	1683	3
0	9783	1684	3
0	9799	1686	1
0	9828	1692	7
0	9834	1693	6
0	9846	1694	4
0	9870	1697	1
0	9883	1698	1
0	9895	1699	1
0	9925	1703	1
0	9959	1713	1
0	9966	1714	2
0	9972	1715	2
0	9979	1716	1
0	9988	1718	1
0	9995	1719	1
0	10005	1720	1
0	10024	1725	1
0	10035	1726	1
0	10044	1727	2
0	10053	1728	1
0	10064	1731	1
0	10085	1734	1
0	10124	1743	1
0	10134	1744	1
0	10208	1760	1
0	10226	1764	1
0	10292	1777	1
0	10301	1779	1
0	10308	1780	1
0	10321	1783	1
0	10340	1788	1
0	10346	1789	2
0	10355	1791	1
0	10378	1794	1
0	10390	1796	1
0	10412	1802	1
0	10419	1803	1
0	10427	1804	1
0	10433	1805	2
0	10440	1806	1
0	10475	1812	1
0	10509	1816	1
0	10551	1822	4
0	10557	1823	4
0	10563	1824	4
0	10569	1825	4
0	10578	1827	1
0	10591	1830	1
0	10605	1833	1
0	10623	1836	1
0	10635	1838	1
0	10660	1842	1
0	10684	1846	1
0	10700	1848	1
0	10717	1850	1
0	10736	1852	1
0	10810	1868	1
0	10821	1871	1
0	10858	1877	1
0	10875	1879	1
0	10884	1880	2
0	10894	1881	1
0	10921	1887	5
0	10928	1888	5
0	10938	1889	6
0	10949	1890	3
0	10957	1891	2
0	10965	1892	1
0	10971	1893	2
0	10978	1894	1
0	10985	1895	1
0	11003	1898	1
0	11019	1901	1
0	11032	1903	1
0	11038	1904	2
0	11057	1906	1
0	11069	1907	2
0	11079	1908	2
0	11088	1909	3
0	11097	1911	1
0	11109	1913	1
0	11148	1924	1
0	11166	1930	2
0	11173	1931	1
0	11187	1934	1
0	11198	1935	1
0	11210	1936	1
0	11231	1940	1
0	11244	1943	1
0	11256	1944	1
0	11270	1947	1
0	11285	1952	1
0	11296	1955	1
0	11348	1968	1
0	11354	1969	2
0	11402	1983	1
0	11417	1987	1
0	11451	1995	1
0	11473	2000	1
0	11486	2002	1
0	11493	2003	2
0	11499	2004	2
0	11526	2010	6
0	11537	2011	4
0	11546	2012	3
0	11553	2013	1
0	11564	2016	1
0	11585	2020	1
0	11612	2024	1
0	11622	2025	1
0	11633	2027	1
0	11664	2031	1
0	11683	2034	1
0	11711	2037	1
0	11784	2047	1
0	11813	2053	1
0	11824	2056	1
0	11833	2058	1
0	11886	2071	1
0	11941	2080	1
0	11970	2084	1
0	12016	2091	1
0	12046	2097	5
0	12057	2098	5
0	12066	2099	6
0	12086	2103	1
0	12184	2129	1
0	12200	2131	1
0	12207	2132	1
0	12214	2133	1
0	12230	2136	1
0	12248	2139	1
0	12281	2144	1
0	12291	2145	1
0	12304	2147	1
0	12322	2152	1
0	12330	2153	1
0	12336	2154	2
0	12354	2158	1
0	12361	2159	1
0	12368	2160	1
0	12384	2163	1
0	12402	2169	6
0	12410	2170	1
0	12416	2171	2
0	12493	2187	1
0	12504	2190	1
0	12536	2196	1
0	12545	2198	1
0	12557	2199	1
0	12587	2203	1
0	12599	2205	1
0	12631	2211	1
0	12645	2213	1
0	12670	2218	1
0	12677	2219	1
0	12687	2220	1
0	12707	2224	1
0	12751	2235	1
0	12817	2245	1
0	12828	2246	1
0	12857	2249	1
0	12890	2255	5
0	12898	2256	1
0	12904	2257	2
0	12935	2261	1
0	12975	2270	1
0	12986	2271	1
0	13010	2274	1
0	13038	2279	1
0	13045	2280	1
0	13053	2281	1
0	13059	2282	2
0	13072	2283	1
0	13083	2284	1
0	13107	2287	1
0	13171	2300	1
0	13178	2301	2
0	13188	2302	2
0	13224	2307	1
0	13242	2311	1
0	13293	2323	1
0	13342	2334	1
0	13375	2342	1
0	13385	2344	1
0	13392	2345	2
0	13400	2346	2
0	13406	2347	2
0	13417	2348	3
0	13427	2349	2
0	13456	2355	1
0	13463	2356	1
0	13481	2359	1
0	13506	2362	1
0	13513	2363	2
0	13520	2364	2
0	13527	2365	2
0	13533	2366	2
0	13565	2371	1
0	13577	2372	1
0	13591	2374	1
0	13605	2377	1
0	13629	2383	3
0	13635	2384	2
0	13642	2385	1
0	13686	2394	1
0	13692	2395	2
0	13710	2398	1
0	13723	2399	1
0	13748	2402	1
0	13779	2407	1
0	13789	2408	2
0	13796	2409	2
0	13803	2410	2
0	13809	2411	2
0	13830	2415	1
0	13847	2417	1
0	13854	2418	2
0	13861	2419	2
0	13867	2420	2
0	13884	2426	1
0	13895	2428	1
0	13916	2434	1
0	13934	2438	1
0	13950	2441	1
0	13957	2442	1
0	13977	2447	1
0	14024	2458	1
0	14033	2460	1
0	14050	2462	1
0	14069	2464	1
0	14080	2465	1
0	14124	2474	1
0	14133	2475	2
0	14172	2486	1
0	14184	2488	1
0	14267	2501	1
0	14281	2504	1
0	14291	2506	1
0	14297	2507	2
0	14313	2510	1
0	14338	2514	1
0	14364	2520	5
0	14372	2521	1
0	14382	2522	2
0	14390	2523	2
0	14406	2526	1
0	14413	2527	1
0	14463	2538	1
0	14474	2539	1
0	14495	2543	1
0	14517	2548	1
0	14551	2555	1
0	14565	2557	1
0	14577	2559	1
0	14599	2564	1
0	14610	2565	2
0	14620	2566	3
0	14628	2567	3
0	14639	2570	1
0	14650	2571	1
0	14658	2572	2
0	14697	2578	4
0	14704	2579	2
0	14713	2580	2
0	14733	2584	1
0	14774	2592	1
0	14791	2594	1
0	14825	2599	1
0	14836	2600	1
0	14842	2601	2
0	14867	2606	1
0	14874	2607	1
0	14881	2608	1
0	14894	2609	1
0	14924	2613	1
0	14950	2616	1
0	14994	2622	1
0	15001	2623	1
0	15010	2625	1
0	15033	2629	1
0	15051	2633	1
0	15078	2639	2
0	15089	2640	3
0	15098	2641	3
0	15105	2642	1
0	15125	2644	1
0	15173	2650	1
0	15198	2653	1
0	15235	2658	1
0	15251	2660	1
0	15266	2665	1
0	15279	2669	1
0	15286	2670	1
0	15342	2681	1
0	15380	2686	1
0	15390	2687	1
0	15405	2690	1
0	15415	2691	2
0	15427	2693	1
0	15451	2696	1
0	15460	2697	2
0	15485	2703	5
0	15492	2704	6
0	15499	2705	6
0	15514	2706	3
0	15524	2707	3
0	15566	2713	1
0	15624	2722	1
0	15634	2723	2
0	15640	2724	2
0	15649	2726	1
0	15658	2728	1
0	15667	2730	1
0	15687	2735	1
0	15694	2736	1
0	15711	2738	1
0	15722	2739	1
0	15759	2746	1
0	15766	2747	1
0	15784	2749	1
0	15808	2752	1
0	15839	2758	5
0	15849	2759	2
0	15862	2760	1
0	15952	2776	1
0	16008	2785	1
0	16052	2792	1
0	16063	2793	1
0	16087	2796	1
0	16109	2803	1
0	16135	2808	1
0	16142	2809	2
0	16148	2810	2
0	16162	2813	1
0	16173	2814	2
0	16189	2817	1
0	16203	2818	1
0	16220	2820	1
0	16232	2822	1
0	16281	2836	1
0	16287	2837	2
0	16321	2843	4
0	16331	2844	2
0	16353	2847	1
0	16360	2848	1
0	16376	2851	1
0	16424	2860	1
0	16433	2862	1
0	16468	2867	1
0	16481	2869	1
0	16490	2870	2
0	16497	2871	3
0	16503	2872	2
0	16519	2875	1
0	16585	2888	1
0	16596	2890	1
0	16618	2892	1
0	16630	2893	2
0	16642	2894	2
0	16674	2899	1
0	16693	2901	1
0	16719	2907	5
0	16740	2914	1
0	16798	2924	1
0	16874	2941	1
0	16916	2951	1
0	16940	2954	1
0	16954	2956	1
0	16992	2962	1
0	17002	2963	2
0	17014	2964	2
0	17022	2965	2
0	17031	2966	3
0	17039	2967	4
0	17055	2970	1
0	17069	2972	1
0	17087	2976	1
0	17100	2979	1
0	17112	2980	1
0	17141	2987	1
0	17151	2988	1
0	17189	2994	3
0	17199	2996	1
0	17205	2997	2
0	17212	2998	1
0	17221	3000	1
0	17228	3001	1
0	17238	3002	1
0	17247	3003	1
0	17256	3005	1
0	17263	3006	1
0	17272	3008	1
0	17290	3011	1
0	17317	3014	1
0	17326	3015	2
0	17333	3016	1
0	17353	3018	1
0	17364	3019	2
0	17374	3020	2
0	17401	3025	1
0	17423	3032	1
0	17479	3041	1
0	17486	3042	1
0	17495	3044	1
0	17507	3046	1
0	17516	3047	2
0	17532	3049	1
0	17545	3051	1
0	17551	3052	2
0	17585	3059	1
0	17596	3061	1
0	17617	3065	1
0	17633	3069	1
0	17642	3070	2
0	17649	3071	1
0	17657	3072	1
0	17666	3073	2
0	17686	3076	1
0	17698	3077	1
0	17713	3079	1
0	17722	3080	2
0	17758	3090	1
0	17775	3093	1
0	17781	3094	2
0	17788	3095	1
0	17813	3100	1
0	17829	3103	1
0	17840	3106	1
0	17851	3107	1
0	17868	3109	1
0	17879	3110	1
0	17885	3111	2
0	17892	3112	1
0	17914	3118	1
0	17924	3119	1
0	17939	3123	1
0	17990	3136	1
0	17997	3137	1
0	18007	3139	1
0	18013	3140	2
0	18038	3144	1
0	18063	3150	6
0	18072	3151	3
0	18078	3152	3
0	18089	3155	1
0	18176	3170	1
0	18188	3171	1
0	18202	3174	1
0	18218	3176	1
0	18224	3177	2
0	18235	3178	3
0	18247	3179	1
0	18271	3182	1
0	18282	3183	1
0	18294	3185	1
0	18305	3187	1
0	18343	3201	1
0	18354	3202	1
0	18360	3203	2
0	18370	3204	1
0	18389	3209	1
0	18429	3215	4
0	18444	3216	5
0	18456	3217	1
0	18466	3218	2
0	18477	3219	1
0	18513	3226	1
0	18522	3227	2
0	18569	3238	1
0	18588	3240	1
0	18606	3243	1
0	18613	3244	1
0	18636	3248	1
0	18647	3250	1
0	18666	3254	1
0	18684	3256	1
0	18705	3260	1
0	18731	3268	1
0	18748	3274	1
0	18787	3283	1
0	18794	3284	2
0	18836	3290	7
0	18847	3291	7
0	18857	3292	5
0	18874	3294	1
0	18881	3295	1
0	18911	3300	1
0	18920	3302	1
0	18933	3306	1
0	18944	3308	1
0	18956	3309	1
0	18968	3311	1
0	18985	3316	1
0	19003	3318	1
0	19009	3319	2
0	19016	3320	1
0	19046	3329	1
0	19082	3337	1
0	19094	3338	1
0	19115	3342	1
0	19124	3344	1
0	19152	3350	4
0	19176	3355	1
0	19190	3356	2
0	19211	3358	1
0	19221	3359	2
0	19232	3360	3
0	19242	3361	4
0	19251	3362	3
0	19269	3367	1
0	19278	3368	2
0	19294	3371	1
0	19303	3373	1
0	19314	3374	1
0	19344	3379	1
0	19359	3380	1
0	19370	3381	1
0	19418	3388	1
0	19448	3397	1
0	19478	3402	1
0	19490	3403	1
0	19532	3412	1
0	19558	3416	1
0	19569	3417	1
0	19607	3427	1
0	19665	3439	1
0	19676	3440	1
0	19687	3441	1
0	19705	3446	1
0	19744	3452	1
0	19756	3454	1
0	19763	3455	1
0	19770	3456	1
0	19786	3459	1
0	19883	3475	1
0	19901	3477	1
0	19919	3479	1
0	19963	3489	1
0	20016	3497	1
0	20027	3498	1
0	20047	3502	1
0	20112	3514	1
0	20142	3520	1
0	20153	3521	1
0	20178	3524	1
0	20184	3525	2
0	20202	3529	1
0	20222	3531	1
0	20262	3538	1
0	20284	3544	1
0	20294	3545	1
0	20316	3548	1
0	20326	3549	2
0	20337	3550	1
0	20364	3555	1
0	20371	3556	1
0	20381	3558	1
0	20391	3559	2
0	20410	3562	1
0	20423	3563	1
0	20442	3566	1
0	20474	3572	7
0	20483	3573	7
0	20491	3574	8
0	20498	3575	7
0	20504	3576	6
0	20510	3577	6
0	20520	3578	4
0	20529	3579	2
0	20536	3580	2
0	20543	3581	2
0	20554	3582	2
0	20565	3583	2
0	20582	3585	1
0	20603	3587	1
0	20614	3588	2
0	20623	3589	2
0	20652	3595	1
0	20664	3596	1
0	20684	3600	1
0	20708	3603	1
0	20748	3609	2
0	20757	3610	3
0	20767	3611	3
0	20789	3616	1
0	20795	3617	2
0	20820	3623	1
0	20839	3625	1
0	20850	3626	1
0	20873	3631	1
0	20883	3632	1
0	20902	3638	1
0	20944	3649	1
0	20955	3650	2
0	20965	3651	2
0	21052	3668	1
0	21072	3673	1
0	21092	3678	1
0	21149	3690	1
0	21158	3691	2
0	21169	3694	1
0	21197	3700	5
0	21208	3702	1
0	21222	3704	1
0	21241	3706	1
0	21259	3711	1
0	21277	3715	1
0	21291	3717	1
0	21309	3720	1
0	21321	3721	1
0	21338	3723	1
0	21354	3726	1
0	21361	3727	1
0	21369	3728	1
0	21375	3729	2
0	21391	3732	1
0	21414	3737	1
0	21440	3740	1
0	21454	3741	2
0	21464	3742	2
0	21473	3743	3
0	21500	3749	6
0	21508	3750	6
0	21514	3751	4
0	21520	3752	4
0	21526	3753	5
0	21535	3754	5
0	21546	3755	6
0	21560	3757	1
0	21571	3758	2
0	21589	3763	1
0	21607	3769	1
0	21616	3770	2
0	21674	3779	1
0	21708	3785	1
0	21737	3792	1
0	21766	3799	1
0	21851	3819	1
0	21858	3820	1
0	21865	3821	1
0	21876	3824	1
0	21900	3830	5
0	21906	3831	3
0	21913	3832	1
0	21926	3835	1
0	21936	3836	1
0	21947	3838	1
0	21959	3840	1
0	21978	3844	1
0	21987	3845	2
0	22015	3849	1
0	22050	3857	1
0	22064	3860	1
0	22075	3861	1
0	22184	3884	1
0	22207	3887	1
0	22225	3889	1
0	22237	3890	2
0	22255	3893	1
0	22262	3894	1
0	22292	3899	1
0	22321	3905	4
0	22327	3906	2
0	22346	3908	1
0	22356	3909	2
0	22381	3912	1
0	22395	3915	1
0	22418	3918	1
0	22434	3922	1
0	22443	3924	1
0	22461	3929	1
0	22479	3931	1
0	22489	3932	1
0	22496	3933	1
0	22507	3936	1
0	22520	3938	1
0	22530	3939	2
0	22542	3940	1
0	22548	3941	2
0	22554	3942	3
0	22574	3945	1
0	22622	3951	6
0	22628	3952	4
0	22640	3953	4
0	22650	3954	5
0	22661	3955	5
0	22671	3956	2
0	22684	3959	1
0	22735	3969	1
0	22744	3970	2
0	22783	3975	1
0	22804	3978	1
0	22821	3979	1
0	22831	3980	2
0	22841	3981	3
0	22868	3986	1
0	22875	3987	1
0	22882	3988	1
0	22912	3993	1
0	22923	3994	1
0	22956	3998	1
0	22991	4004	7
0	22997	4005	2
0	23004	4006	1
0	23021	4009	1
0	23027	4010	2
0	23034	4011	1
0	23045	4012	1
0	23088	4018	1
0	23106	4022	1
0	23115	4024	1
0	23129	4026	1
0	23140	4027	2
0	23151	4028	3
0	23164	4029	4
0	23174	4030	2
0	23184	4031	3
0	23193	4032	3
0	23199	4033	3
0	23206	4034	3
0	23215	4035	2
0	23251	4044	1
0	23263	4046	1
0	23295	4050	1
0	23307	4052	1
0	23317	4053	1
0	23340	4056	1
0	23347	4057	1
0	23402	4067	1
0	23409	4068	1
0	23427	4071	1
0	23441	4074	1
0	23470	4082	1
0	23480	4083	2
0	23486	4084	2
0	23498	4087	1
0	23504	4088	2
0	23531	4094	1
0	23541	4095	1
0	23550	4096	1
0	23557	4097	1
0	23601	4103	3
0	23610	4104	2
0	23621	4106	1
0	23639	4110	1
0	23649	4111	1
0	23658	4112	1
0	23671	4116	1
0	23697	4120	1
0	23706	4121	2
0	23779	4135	1
0	23787	4136	1
0	23793	4137	2
0	23821	4141	1
0	23837	4144	1
0	23884	4154	1
0	23916	4161	1
0	23927	4163	1
0	23940	4165	1
0	23946	4166	2
0	23994	4175	1
0	24036	4181	4
0	24045	4182	5
0	24055	4183	3
0	24063	4184	2
0	24073	4185	1
0	24085	4186	1
0	24097	4187	1
0	24118	4190	1
0	24146	4194	1
0	24158	4195	2
0	24167	4196	2
0	24174	4197	1
0	24212	4204	1
0	24263	4214	1
0	24276	4218	1
0	24285	4220	1
0	24303	4224	1
0	24312	4226	1
0	24334	4232	1
0	24349	4237	1
0	24370	4243	3
0	24379	4244	3
0	24411	4251	1
0	24431	4253	1
0	24454	4256	1
0	24464	4257	2
0	24472	4258	2
0	24490	4262	1
0	24502	4263	1
0	24512	4264	2
0	24539	4268	1
0	24554	4270	1
0	24583	4275	1
0	24593	4276	1
0	24618	4279	1
0	24649	4283	1
0	24661	4284	1
0	24674	4285	1
0	24686	4286	1
0	24697	4287	1
0	24721	4293	5
0	24730	4294	2
0	24748	4298	1
0	24771	4301	1
0	24785	4304	1
0	24792	4305	1
0	24799	4306	1
0	24806	4307	1
0	24845	4314	1
0	24855	4316	1
0	24861	4317	2
0	24868	4318	1
0	24902	4324	1
0	24945	4330	1
0	24961	4332	1
0	24972	4334	1
0	24991	4337	1
0	25007	4339	1
0	25017	4340	1
0	25035	4344	1
0	25069	4350	5
0	25079	4351	3
0	25090	4352	1
0	25102	4354	1
0	25111	4355	2
0	25150	4360	1
0	25167	4362	1
0	25220	4370	1
0	25245	4375	1
0	25278	4382	1
0	25284	4383	2
0	25291	4384	1
0	25298	4385	1
0	25305	4386	1
0	25323	4392	1
0	25329	4393	2
0	25345	4396	1
0	25374	4404	1
0	25414	4410	1
0	25426	4411	1
0	25484	4422	1
0	25494	4423	2
0	25569	4436	1
0	25587	4438	1
0	25606	4440	1
0	25634	4445	1
0	25645	4446	1
0	25706	4456	1
0	25744	4465	1
0	25752	4466	1
0	25762	4467	2
0	25770	4468	2
0	25781	4471	1
0	25808	4477	1
0	25821	4480	1
0	25836	4482	1
0	25857	4486	1
0	25863	4487	2
0	25896	4491	1
0	25927	4495	1
0	25974	4501	6
0	25980	4502	4
0	25989	4503	5
0	26023	4509	1
0	26034	4512	1
0	26051	4518	1
0	26071	4522	1
0	26090	4525	1
0	26102	4527	1
0	26114	4528	1
0	26126	4529	1
0	26162	4536	1
0	26225	4545	1
0	26246	4548	1
0	26259	4552	1
0	26272	4556	1
0	26305	4564	1
0	26339	4574	1
0	26352	4575	2
0	26403	4584	1
0	26440	4590	6
0	26450	4591	4
0	26493	4601	1
0	26500	4602	1
0	26541	4610	1
0	26548	4611	1
0	26564	4613	1
0	26600	4621	1
0	26639	4628	1
0	26701	4640	1
0	26722	4644	1
0	26763	4649	1
0	26774	4650	2
0	26785	4651	1
0	26886	4671	1
0	26914	4678	1
0	26924	4679	1
0	26957	4684	1
0	26973	4686	1
0	26993	4691	1
0	27023	4698	1
0	27032	4700	1
0	27048	4704	1
0	27059	4705	2
0	27074	4707	1
0	27090	4709	1
0	27101	4712	1
0	27159	4725	1
0	27188	4732	1
0	27202	4735	1
0	27215	4739	1
0	27222	4740	1
0	27239	4744	1
0	27249	4745	2
0	27260	4746	1
0	27266	4747	2
0	27337	4761	1
0	27349	4762	1
0	27359	4763	2
0	27365	4764	2
0	27386	4770	5
0	27393	4771	6
0	27400	4772	5
0	27407	4773	5
0	27413	4774	4
0	27419	4775	4
0	27429	4776	4
0	27443	4777	2
0	27456	4778	2
0	27466	4779	3
0	27478	4780	1
0	27509	4787	1
0	27529	4790	1
0	27535	4791	2
0	27561	4799	1
0	27569	4800	1
0	27575	4801	2
0	27583	4802	1
0	27589	4803	2
0	27596	4804	1
0	27627	4810	5
0	27639	4811	3
0	27655	4813	1
0	27688	4822	1
0	27718	4826	1
0	27728	4827	1
0	27746	4831	1
0	27785	4839	1
0	27795	4840	2
0	27805	4841	2
0	27820	4843	1
0	27841	4846	1
0	27879	4860	1
0	27890	4862	1
0	27910	4867	1
0	27917	4868	2
0	27923	4869	3
0	27929	4870	3
0	27936	4871	1
0	27947	4873	1
0	27988	4879	6
0	28000	4880	5
0	28010	4881	4
0	28026	4882	5
0	28036	4883	6
0	28046	4884	6
0	28056	4885	4
0	28083	4889	1
0	28101	4892	1
0	28111	4893	1
0	28183	4904	1
0	28196	4908	1
0	28227	4912	1
0	28238	4913	1
0	28269	4922	1
0	28276	4923	1
0	28294	4927	1
0	28332	4938	1
0	28342	4939	2
0	28350	4940	2
0	28373	4946	1
0	28395	4950	1
0	28406	4951	1
0	28418	4952	1
0	28429	4953	2
0	28435	4954	2
0	28444	4955	3
0	28463	4961	1
0	28540	4975	1
0	28551	4976	2
0	28578	4979	1
0	28589	4980	1
0	28658	4991	1
0	28665	4992	1
0	28672	4993	1
0	28725	5000	1
1	2432	400	4
1	2435	400	3
1	2446	401	2
1	2456	402	1
1	2462	403	0
1	2471	405	1
1	2471	405	0
1	2482	408	1
1	2482	408	0
1	2487	409	1
1	2489	409	0
1	2494	410	1
1	2496	410	0
1	2508	412	1
1	2508	412	0
1	2528	416	1
1	2528	416	0
1	2546	418	1
1	2546	418	0
1	2555	419	1
1	2557	419	0
1	2571	421	1
1	2571	421	0
1	2599	429	1
1	2599	429	0
1	2604	430	1
1	2622	435	0
1	2623	435	1
1	2629	436	0
1	2640	439	1
1	2640	439	0
1	2645	440	1
1	2647	440	0
1	2668	444	1
1	2668	444	0
1	2684	446	1
1	2684	446	0
1	2707	450	1
1	2707	450	0
1	2715	451	1
1	2717	451	0
1	2739	454	1
1	2739	454	0
1	2740	454	1
1	2751	455	2
1	2752	455	3
1	2754	455	2
1	2764	456	1
1	2774	457	0
1	2796	462	1
1	2796	462	0
1	2834	469	1
1	2834	469	0
1	2835	469	1
1	2846	470	0
1	2916	488	1
1	2916	488	0
1	2937	491	1
1	2937	491	0
1	2938	491	1
1	2939	491	2
1	2947	492	1
1	2953	493	0
1	2971	497	1
1	2971	497	0
1	2976	498	1
1	2977	498	2
1	2984	499	3
1	2999	503	2
1	3000	503	3
1	3009	504	2
1	3019	505	1
1	3026	506	0
1	3039	508	1
1	3039	508	0
1	3060	512	1
1	3060	512	0
1	3061	512	1
1	3069	513	0
1	3078	515	1
1	3078	515	0
1	3083	516	1
1	3085	516	0
1	3115	522	1
1	3115	522	0
1	3122	523	1
1	3124	523	0
1	3145	527	1
1	3145	527	0
1	3178	531	1
1	3178	531	0
1	3194	533	1
1	3194	533	0
1	3219	539	1
1	3219	539	0
1	3226	540	1
1	3229	540	0
1	3246	544	1
1	3246	544	0
1	3251	545	1
1	3253	545	0
1	3262	547	1
1	3262	547	0
1	3289	553	1
1	3289	553	0
1	3303	558	1
1	3307	559	0
1	3340	566	1
1	3340	566	0
1	3355	568	1
1	3355	568	0
1	3377	574	1
1	3377	574	0
1	3378	574	1
1	3383	575	2
1	3385	575	1
1	3390	576	2
1	3392	576	1
1	3398	577	0
1	3403	578	1
1	3405	578	0
1	3414	580	1
1	3414	580	0
1	3422	581	1
1	3424	581	0
1	3435	583	1
1	3435	583	0
1	3454	586	1
1	3454	586	0
1	3465	588	1
1	3465	588	0
1	3483	592	1
1	3483	592	0
1	3488	593	1
1	3490	593	0
1	3503	597	1
1	3503	597	0
1	3541	604	1
1	3541	604	0
1	3550	605	1
1	3552	605	0
1	3577	609	1
1	3577	609	0
1	3609	613	1
1	3609	613	0
1	3610	613	1
1	3646	619	0
1	3675	626	1
1	3675	626	0
1	3688	629	1
1	3688	629	0
1	3715	633	1
1	3715	633	0
1	3748	639	1
1	3748	639	0
1	3777	643	1
1	3777	643	0
1	3787	644	1
1	3793	644	0
1	3831	649	1
1	3831	649	0
1	3884	656	1
1	3884	656	0
1	3885	656	1
1	3895	657	0
1	3912	659	1
1	3912	659	0
1	3940	665	1
1	3940	665	0
1	3968	669	1
1	3968	669	0
1	4001	678	1
1	4001	678	0
1	4019	680	1
1	4019	680	0
1	4037	682	1
1	4037	682	0
1	4044	683	1
1	4046	683	0
1	4058	685	1
1	4058	685	0
1	4109	692	1
1	4109	692	0
1	4118	693	1
1	4120	693	0
1	4129	694	1
1	4154	699	0
1	4170	702	1
1	4170	702	0
1	4184	705	1
1	4184	705	0
1	4203	711	1
1	4203	711	0
1	4214	714	1
1	4214	714	0
1	4231	716	1
1	4231	716	0
1	4232	716	1
1	4240	717	0
1	4290	727	1
1	4290	727	0
1	4295	728	1
1	4297	728	0
1	4313	732	1
1	4313	732	0
1	4320	733	1
1	4323	733	0
1	4336	735	1
1	4336	735	0
1	4347	738	1
1	4347	738	0
1	4374	742	1
1	4374	742	0
1	4393	744	1
1	4393	744	0
1	4413	747	1
1	4413	747	0
1	4442	751	1
1	4442	751	0
1	4451	752	1
1	4455	752	0
1	4507	759	1
1	4507	759	0
1	4537	763	1
1	4537	763	0
1	4550	765	1
1	4560	769	0
1	4569	771	1
1	4569	771	0
1	4614	779	1
1	4614	779	0
1	4689	792	1
1	4689	792	0
1	4702	795	1
1	4702	795	0
1	4711	797	1
1	4711	797	0
1	4722	800	1
1	4722	800	0
1	4739	804	1
1	4739	804	0
1	4776	812	1
1	4776	812	0
1	4777	812	1
1	4786	813	0
1	4824	821	1
1	4824	821	0
1	4844	824	1
1	4844	824	0
1	4853	825	1
1	4855	825	0
1	4869	827	1
1	4869	827	0
1	4908	838	1
1	4908	838	0
1	4913	839	1
1	4915	839	0
1	4920	840	1
1	4923	840	0
1	4941	843	1
1	4941	843	0
1	4952	845	1
1	4952	845	0
1	4978	849	1
1	4978	849	0
1	4979	849	1
1	4980	849	2
1	5007	855	1
1	5019	856	0
1	5028	857	1
1	5030	857	0
1	5049	863	1
1	5049	863	0
1	5054	864	1
1	5055	864	2
1	5057	864	1
1	5063	865	0
1	5072	867	1
1	5072	867	0
1	5083	870	1
1	5083	870	0
1	5109	876	1
1	5109	876	0
1	5126	879	1
1	5126	879	0
1	5139	883	1
1	5139	883	0
1	5200	897	1
1	5200	897	0
1	5216	899	1
1	5216	899	0
1	5228	901	1
1	5228	901	0
1	5235	902	1
1	5238	902	0
1	5256	904	1
1	5256	904	0
1	5283	910	1
1	5283	910	0
1	5295	912	1
1	5295	912	0
1	5305	913	1
1	5306	913	2
1	5309	913	1
1	5319	914	0
1	5329	916	1
1	5330	916	2
1	5345	920	1
1	5346	920	2
1	5356	921	1
1	5365	922	2
1	5367	922	1
1	5374	923	2
1	5376	923	1
1	5382	924	0
1	5393	927	1
1	5393	927	0
1	5408	930	1
1	5408	930	0
1	5418	931	1
1	5420	931	0
1	5464	938	1
1	5464	938	0
1	5502	944	1
1	5502	944	0
1	5515	946	1
1	5515	946	0
1	5525	947	1
1	5527	947	0
1	5562	952	1
1	5562	952	0
1	5577	954	1
1	5577	954	0
1	5658	972	1
1	5658	972	0
1	5677	975	1
1	5677	975	0
1	5723	982	1
1	5723	982	0
1	5744	985	1
1	5744	985	0
1	5745	985	1
1	5751	986	0
1	5760	988	1
1	5760	988	0
1	5773	990	1
1	5783	992	2
1	5797	994	1
1	5805	995	0
1	5810	996	1
1	5812	996	0
1	5817	997	1
1	5822	997	0
1	5843	1000	1
1	5843	1000	0
1	5844	1000	1
1	5857	1001	0
1	5885	1005	1
1	5885	1005	0
1	5909	1012	1
1	5909	1012	0
1	5914	1013	1
1	5917	1013	0
1	5939	1018	1
1	5939	1018	0
1	5963	1025	1
1	5963	1025	0
1	5996	1033	1
1	5996	1033	0
1	6035	1041	1
1	6035	1041	0
1	6042	1042	1
1	6046	1042	0
1	6095	1050	1
1	6095	1050	0
1	6129	1057	1
1	6129	1057	0
1	6134	1058	1
1	6135	1058	2
1	6137	1058	1
1	6143	1059	0
1	6175	1065	1
1	6175	1065	0
1	6193	1069	1
1	6193	1069	0
1	6201	1071	1
1	6207	1072	2
1	6208	1072	3
1	6228	1075	2
1	6238	1076	1
1	6248	1077	0
1	6277	1088	1
1	6277	1088	0
1	6278	1088	1
1	6283	1089	2
1	6284	1089	3
1	6286	1089	2
1	6292	1090	1
1	6299	1091	0
1	6315	1093	1
1	6315	1093	0
1	6322	1094	1
1	6324	1094	0
1	6342	1099	1
1	6342	1099	0
1	6343	1099	1
1	6351	1100	0
1	6356	1101	1
1	6360	1101	0
1	6417	1109	1
1	6417	1109	0
1	6464	1115	1
1	6464	1115	0
1	6484	1117	1
1	6484	1117	0
1	6509	1122	1
1	6509	1122	0
1	6510	1122	1
1	6522	1123	0
1	6556	1128	1
1	6556	1128	0
1	6575	1132	1
1	6575	1132	0
1	6611	1140	1
1	6611	1140	0
1	6655	1149	1
1	6655	1149	0
1	6674	1152	1
1	6674	1152	0
1	6691	1155	1
1	6691	1155	0
1	6692	1155	1
1	6702	1156	2
1	6704	1156	1
1	6714	1157	0
1	6740	1162	1
1	6740	1162	0
1	6755	1164	1
1	6755	1164	0
1	6816	1177	1
1	6816	1177	0
1	6817	1177	1
1	6826	1178	0
1	6840	1180	1
1	6840	1180	0
1	6841	1180	1
1	6850	1181	0
1	6865	1184	1
1	6865	1184	0
1	6891	1188	1
1	6891	1188	0
1	6909	1191	1
1	6909	1191	0
1	6914	1192	1
1	6917	1192	0
1	6946	1197	1
1	6946	1197	0
1	6955	1199	1
1	6955	1199	0
1	6966	1202	1
1	6966	1202	0
1	6981	1207	1
1	6981	1207	0
1	6996	1212	1
1	6996	1212	0
1	7008	1216	1
1	7014	1218	0
1	7015	1218	1
1	7025	1219	0
1	7040	1221	1
1	7040	1221	0
1	7045	1222	1
1	7050	1222	0
1	7057	1223	1
1	7063	1223	0
1	7078	1225	1
1	7078	1225	0
1	7117	1230	1
1	7117	1230	0
1	7126	1231	1
1	7129	1231	0
1	7144	1233	1
1	7144	1233	0
1	7149	1234	1
1	7151	1234	0
1	7160	1236	1
1	7160	1236	0
1	7215	1251	1
1	7215	1251	0
1	7224	1252	1
1	7227	1252	0
1	7236	1253	1
1	7237	1253	2
1	7239	1253	1
1	7250	1254	0
1	7269	1258	1
1	7269	1258	0
1	7277	1259	1
1	7282	1259	0
1	7305	1262	1
1	7305	1262	0
1	7315	1263	1
1	7317	1263	0
1	7335	1266	1
1	7335	1266	0
1	7365	1273	1
1	7365	1273	0
1	7373	1274	1
1	7374	1274	2
1	7375	1274	3
1	7377	1274	2
1	7385	1275	1
1	7393	1276	0
1	7433	1283	1
1	7433	1283	0
1	7453	1287	1
1	7453	1287	0
1	7454	1287	1
1	7464	1288	0
1	7528	1298	1
1	7528	1298	0
1	7544	1300	1
1	7544	1300	0
1	7569	1306	1
1	7569	1306	0
1	7576	1307	1
1	7578	1307	0
1	7583	1308	1
1	7585	1308	0
1	7611	1316	1
1	7611	1316	0
1	7622	1319	1
1	7622	1319	0
1	7636	1322	1
1	7636	1322	0
1	7738	1339	1
1	7738	1339	0
1	7776	1344	1
1	7776	1344	0
1	7785	1345	1
1	7788	1345	0
1	7803	1347	1
1	7803	1347	0
1	7817	1349	1
1	7817	1349	0
1	7827	1352	1
1	7838	1355	0
1	7839	1355	1
1	7847	1356	0
1	7852	1357	1
1	7855	1357	0
1	7885	1362	1
1	7885	1362	0
1	7894	1363	1
1	7895	1363	2
1	7900	1363	1
1	7909	1364	2
1	7913	1364	1
1	7924	1365	0
1	7960	1370	1
1	7960	1370	0
1	7970	1371	1
1	7972	1371	0
1	7993	1374	1
1	7993	1374	0
1	8006	1378	1
1	8006	1378	0
1	8014	1379	1
1	8016	1379	0
1	8052	1386	1
1	8052	1386	0
1	8053	1386	1
1	8059	1387	0
1	8064	1388	1
1	8066	1388	0
1	8079	1390	1
1	8079	1390	0
1	8117	1396	1
1	8117	1396	0
1	8138	1399	1
1	8138	1399	0
1	8166	1404	1
1	8166	1404	0
1	8193	1409	1
1	8193	1409	0
1	8243	1417	1
1	8243	1417	0
1	8265	1419	1
1	8265	1419	0
1	8306	1424	1
1	8306	1424	0
1	8350	1430	1
1	8350	1430	0
1	8359	1431	1
1	8363	1431	0
1	8388	1436	1
1	8388	1436	0
1	8397	1438	1
1	8397	1438	0
1	8416	1441	1
1	8416	1441	0
1	8431	1445	1
1	8431	1445	0
1	8436	1446	1
1	8438	1446	0
1	8466	1455	1
1	8466	1455	0
1	8501	1461	1
1	8501	1461	0
1	8508	1462	1
1	8511	1462	0