version 3
run Experimentos-142-20260508-20:05:42-28545
attr configname Experimentos
attr datetime 20260508-20:05:42
attr datetimef 20260508-200542
attr experiment Experimentos
attr inifile TwoQueues.ini
attr iterationvars "$p=0.6, $q=0.2, $Y=20, $m=5"
attr iterationvarsd p=0.6/q=0.2/Y=20/m=5
attr iterationvarsf p=0.6,q=0.2,Y=20,m=5-
attr measurement "$p=0.6, $q=0.2, $Y=20, $m=5"
attr network TwoQueues
attr processid 28545
attr repetition 2
attr replication #2
attr resultdir results
attr runnumber 142
attr seedset 142
itervar Y 20
itervar m 5
itervar p 0.6
itervar q 0.2
config description "Barrido completo de parámetros Proyecto 12"
config **.source1.p 0.6
config **.source1.q 0.2
config **.source2.p 0.6
config **.source2.q 0.2
config **.serverWithMaintenance.Y 20
config **.serverWithMaintenance.m 5
config network TwoQueues
config cpu-time-limit 5000s
config sim-time-limit 5000s
config warmup-period 400s
config repeat 20
config output-scalar-file results/Experimentos-p=0.6,q=0.2,Y=20,m=5--#2.sca
config output-vector-file results/Experimentos-p=0.6,q=0.2,Y=20,m=5--#2.vec
config **.vector-recording true

vector 0 TwoQueues.serverWithMaintenance residenceTime2:vector ETV
attr recordingmode vector
attr source delay2
attr title "Residence Time Class 2"
vector 1 TwoQueues.queue2 queueLengthStats:vector ETV
attr recordingmode vector
attr source qlen
attr title "Average Queue Length"
vector 2 TwoQueues.queue1 queueLengthStats:vector ETV
attr recordingmode vector
attr source qlen
attr title "Average Queue Length"
vector 3 TwoQueues.server residenceTime1:vector ETV
attr recordingmode vector
attr source delay1
attr title "Residence Time Class 1"
vector 4 TwoQueues.server throughputStats1:vector ETV
attr recordingmode vector
attr source throughput1
attr title "Throughput Class 1"
0	2554	400	1
0	2625	421	1
0	2678	429	1
0	2754	449	1
0	2765	450	1
0	2836	465	1
0	2895	474	1
0	2926	478	1
0	2936	479	2
0	2946	480	1
0	2964	484	1
0	2971	485	1
0	2984	488	1
0	2996	489	1
0	3049	497	1
0	3067	499	1
0	3078	500	1
0	3110	507	1
0	3157	514	1
0	3213	523	1
0	3223	524	2
0	3231	525	2
0	3262	530	1
0	3308	536	7
0	3327	538	1
0	3372	544	1
0	3384	545	1
0	3398	547	1
0	3408	548	1
0	3430	554	1
0	3443	558	1
0	3484	565	1
0	3501	567	1
0	3539	572	1
0	3549	573	2
0	3560	574	1
0	3659	587	1
0	3689	591	1
0	3717	595	1
0	3794	612	1
0	3805	613	2
0	3821	615	1
0	3840	617	1
0	3877	623	4
0	3888	624	4
0	3915	627	1
0	3954	632	1
0	4123	665	1
0	4135	667	1
0	4180	676	1
0	4191	679	1
0	4216	683	1
0	4228	685	1
0	4295	695	1
0	4313	697	1
0	4351	702	1
0	4362	703	1
0	4437	715	1
0	4450	716	1
0	4480	720	1
0	4510	725	1
0	4520	726	1
0	4531	728	1
0	4568	734	4
0	4577	735	3
0	4620	742	1
0	4645	747	1
0	4672	750	1
0	4695	753	1
0	4722	758	1
0	4733	759	1
0	4745	760	2
0	4825	771	1
0	4839	772	1
0	4859	774	1
0	4968	789	1
0	4978	790	2
0	4996	792	1
0	5030	798	1
0	5058	801	1
0	5068	802	2
0	5079	803	1
0	5090	804	1
0	5130	810	4
0	5210	825	1
0	5223	829	1
0	5238	832	1
0	5300	840	1
0	5367	849	1
0	5398	853	1
0	5409	854	1
0	5429	856	1
0	5453	859	1
0	5505	866	1
0	5552	871	1
0	5616	879	1
0	5655	884	1
0	5672	886	1
0	5683	887	1
0	5706	890	1
0	5768	899	1
0	5815	905	1
0	5878	913	1
0	5927	919	4
0	5976	925	1
0	5987	926	1
0	6047	934	1
0	6058	935	2
0	6104	941	1
0	6116	942	1
0	6128	943	1
0	6148	945	1
0	6159	946	1
0	6189	950	1
0	6208	952	1
0	6252	958	1
0	6310	966	1
0	6320	967	1
0	6329	969	1
0	6372	977	1
0	6482	993	1
0	6529	999	1
0	6540	1000	1
0	6583	1008	1
0	6607	1011	1
0	6637	1015	1
0	6645	1016	1
0	6651	1017	2
0	6661	1018	1
0	6726	1027	1
0	6737	1028	1
0	6779	1036	1
0	6786	1037	1
0	6797	1038	1
0	6864	1050	1
0	6900	1058	1
0	6910	1059	1
0	6943	1064	1
0	6970	1069	1
0	7004	1073	1
0	7108	1088	1
0	7115	1089	1
0	7160	1097	1
0	7199	1103	5
0	7220	1107	1
0	7246	1111	1
0	7254	1112	2
0	7260	1113	2
0	7266	1114	3
0	7281	1118	1
0	7360	1130	1
0	7393	1134	1
0	7445	1145	1
0	7507	1156	1
0	7519	1158	1
0	7617	1173	1
0	7650	1177	1
0	7661	1178	1
0	7754	1192	1
0	7867	1216	1
0	7879	1217	1
0	7928	1228	1
0	7938	1229	2
0	8041	1246	1
0	8048	1247	1
0	8055	1248	1
0	8110	1256	1
0	8150	1261	1
0	8163	1262	1
0	8194	1266	1
0	8205	1267	1
0	8233	1272	1
0	8272	1277	1
0	8349	1288	1
0	8362	1289	2
0	8413	1295	1
0	8439	1298	1
0	8462	1301	1
0	8502	1306	1
0	8540	1311	1
0	8565	1314	1
0	8577	1315	1
0	8597	1317	1
0	8638	1323	2
0	8659	1326	1
0	8699	1331	1
0	8729	1337	1
0	8739	1338	1
0	8749	1339	1
0	8755	1340	2
0	8783	1345	1
0	8834	1352	1
0	8859	1355	1
0	8876	1357	1
0	8909	1363	1
0	8940	1371	1
0	8966	1374	1
0	8979	1375	1
0	9003	1378	1
0	9072	1392	1
0	9111	1397	1
0	9184	1412	1
0	9194	1413	1
0	9238	1419	6
0	9247	1420	2
0	9253	1421	3
0	9260	1422	1
0	9282	1426	1
0	9308	1429	1
0	9342	1434	1
0	9351	1435	2
0	9362	1436	1
0	9388	1439	1
0	9399	1440	2
0	9410	1441	1
0	9420	1442	1
0	9434	1444	1
0	9480	1451	1
0	9508	1457	1
0	9552	1464	1
0	9583	1471	1
0	9596	1473	1
0	9629	1477	1
0	9665	1483	5
0	9675	1484	1
0	9709	1490	1
0	9727	1492	1
0	9800	1503	1
0	9878	1513	1
0	9910	1517	1
0	9937	1520	1
0	9949	1521	1
0	9967	1523	1
0	9991	1526	1
0	10017	1530	1
0	10058	1538	1
0	10108	1547	1
0	10203	1562	1
0	10243	1573	1
0	10288	1579	1
0	10328	1588	1
0	10444	1607	1
0	10456	1608	2
0	10482	1614	6
0	10491	1615	3
0	10500	1616	1
0	10533	1620	1
0	10544	1621	1
0	10556	1622	1
0	10571	1623	1
0	10618	1629	1
0	10628	1630	2
0	10638	1631	3
0	10659	1633	1
0	10698	1640	1
0	10712	1642	1
0	10749	1648	1
0	10809	1659	1
0	10821	1660	1
0	10847	1663	1
0	10863	1665	1
0	10912	1672	1
0	10959	1680	1
0	10993	1686	7
0	10999	1687	6
0	11010	1688	3
0	11021	1689	2
0	11032	1690	1
0	11052	1694	1
0	11066	1696	1
0	11076	1697	1
0	11085	1698	1
0	11127	1704	1
0	11153	1707	1
0	11164	1708	2
0	11176	1709	2
0	11185	1710	2
0	11195	1711	3
0	11203	1712	2
0	11210	1713	1
0	11224	1715	1
0	11231	1716	1
0	11240	1718	1
0	11281	1729	1
0	11295	1730	1
0	11305	1731	2
0	11316	1732	3
0	11391	1747	1
0	11414	1751	1
0	11456	1759	1
0	11488	1763	1
0	11521	1768	1
0	11534	1769	1
0	11545	1770	1
0	11568	1773	1
0	11625	1780	1
0	11642	1782	1
0	11654	1783	1
0	11663	1784	2
0	11676	1785	1
0	11687	1786	1
0	11788	1803	1
0	11800	1805	1
0	11835	1811	5
0	11863	1815	1
0	11875	1817	1
0	11882	1818	1
0	11898	1821	1
0	11912	1823	1
0	11954	1830	1
0	11970	1832	1
0	11980	1833	1
0	12014	1838	1
0	12032	1840	1
0	12043	1841	1
0	12110	1853	1
0	12126	1855	1
0	12149	1859	1
0	12160	1860	2
0	12270	1875	1
0	12330	1886	1
0	12407	1903	1
0	12478	1912	1
0	12530	1918	5
0	12541	1919	6
0	12551	1920	6
0	12575	1923	1
0	12599	1926	1
0	12626	1929	1
0	12638	1930	1
0	12721	1941	1
0	12854	1959	1
0	12926	1969	1
0	12936	1970	2
0	12976	1978	1
0	12987	1979	1
0	13011	1985	1
0	13067	1995	1
0	13116	2002	1
0	13134	2004	1
0	13153	2006	1
0	13164	2007	2
0	13186	2009	1
0	13224	2015	3
0	13230	2016	3
0	13252	2022	1
0	13299	2029	1
0	13310	2030	2
0	13330	2035	1
0	13349	2037	1
0	13409	2048	1
0	13473	2061	1
0	13496	2063	1
0	13507	2064	1
0	13518	2065	1
0	13584	2074	1
0	13613	2079	1
0	13634	2082	1
0	13655	2085	1
0	13704	2093	1
0	13711	2094	1
0	13745	2101	1
0	13759	2103	1
0	13790	2109	3
0	13826	2116	1
0	13833	2117	1
0	13840	2118	1
0	13898	2133	1
0	13909	2134	1
0	13968	2147	1
0	13983	2148	1
0	14034	2155	1
0	14045	2156	1
0	14074	2160	1
0	14098	2164	1
0	14130	2168	1
0	14176	2175	1
0	14211	2179	1
0	14223	2180	2
0	14240	2182	1
0	14254	2185	1
0	14293	2194	1
0	14302	2195	2
0	14352	2201	2
0	14402	2207	1
0	14438	2212	1
0	14483	2218	1
0	14509	2221	1
0	14519	2222	1
0	14527	2223	1
0	14533	2224	2
0	14543	2225	1
0	14680	2249	1
0	14692	2251	1
0	14701	2253	1
0	14772	2264	1
0	14782	2265	2
0	14860	2276	1
0	14914	2286	1
0	14931	2288	1
0	14955	2291	1
0	14971	2293	1
0	14987	2296	1
0	15034	2302	4
0	15051	2304	1
0	15061	2305	1
0	15090	2313	1
0	15110	2316	1
0	15124	2319	1
0	15156	2325	1
0	15167	2328	1
0	15178	2330	1
0	15241	2340	1
0	15296	2350	1
0	15360	2358	1
0	15373	2359	2
0	15404	2363	1
0	15430	2366	1
0	15495	2376	1
0	15519	2379	1
0	15598	2392	1
0	15635	2397	1
0	15770	2425	1
0	15818	2431	1
0	15835	2433	1
0	15864	2441	1
0	15925	2450	1
0	15950	2454	1
0	15961	2457	1
0	15977	2460	1
0	16011	2466	1
0	16041	2472	1
0	16069	2475	1
0	16120	2482	1
0	16184	2491	1
0	16240	2509	1
0	16267	2515	1
0	16329	2525	1
0	16343	2526	1
0	16353	2527	2
0	16363	2528	1
0	16382	2533	1
0	16392	2534	2
0	16423	2540	1
0	16433	2541	1
0	16467	2547	1
0	16481	2548	1
0	16494	2549	1
0	16504	2550	2
0	16552	2557	1
0	16584	2563	1
0	16592	2564	1
0	16598	2565	2
0	16615	2568	1
0	16626	2569	2
0	16658	2574	1
0	16678	2578	1
0	16702	2581	1
0	16726	2585	1
0	16738	2586	1
0	16747	2587	2
0	16805	2601	1
0	16864	2618	1
0	16892	2624	2
0	16902	2626	1
0	16908	2627	2
0	16915	2628	1
0	16936	2635	1
0	17037	2653	1
0	17073	2662	1
0	17091	2664	1
0	17101	2665	2
0	17111	2666	1
0	17190	2683	1
0	17207	2687	1
0	17219	2688	2
0	17231	2689	2
0	17244	2690	2
0	17255	2691	2
0	17265	2692	2
0	17296	2697	1
0	17327	2704	1
0	17454	2723	1
0	17606	2748	1
0	17613	2749	1
0	17716	2766	1
0	17741	2769	1
0	17759	2771	1
0	17779	2773	1
0	17826	2780	1
0	17871	2786	1
0	17895	2789	1
0	17932	2796	1
0	17939	2797	1
0	17950	2799	1
0	18032	2809	1
0	18054	2811	1
0	18082	2814	1
0	18093	2815	1
0	18138	2821	1
0	18176	2826	1
0	18214	2831	1
0	18270	2839	1
0	18308	2845	4
0	18346	2850	1
0	18371	2855	1
0	18503	2875	1
0	18517	2877	1
0	18578	2887	1
0	18695	2908	1
0	18704	2909	2
0	18718	2910	1
0	18740	2913	1
0	18789	2920	1
0	18801	2921	1
0	18906	2940	1
0	18916	2941	1
0	18930	2944	1
0	18937	2945	2
0	18943	2946	2
0	18954	2947	1
0	19008	2957	1
0	19035	2962	1
0	19077	2968	6
0	19088	2969	6
0	19119	2975	1
0	19145	2979	1
0	19152	2980	1
0	19222	2994	1
0	19246	2998	1
0	19255	2999	2
0	19269	3001	1
0	19356	3018	1
0	19367	3019	2
0	19380	3020	1
0	19389	3021	2
0	19398	3023	1
0	19418	3028	1
0	19427	3030	1
0	19434	3031	1
0	19445	3032	1
0	19465	3034	1
0	19476	3035	1
0	19526	3041	5
0	19536	3042	5
0	19546	3043	5
0	19580	3051	1
0	19589	3053	1
0	19629	3063	1
0	19709	3077	1
0	19722	3079	1
0	19728	3080	2
0	19752	3087	1
0	19768	3090	1
0	19784	3092	1
0	19833	3099	1
0	19859	3102	1
0	19870	3103	1
0	19876	3104	2
0	19927	3112	1
0	19943	3114	1
0	19996	3123	1
0	20020	3126	1
0	20054	3132	3
0	20060	3133	2
0	20142	3149	1
0	20181	3155	1
0	20201	3157	1
0	20230	3161	1
0	20311	3172	1
0	20324	3173	2
0	20349	3176	1
0	20377	3179	1
0	20387	3180	2
0	20404	3182	1
0	20448	3188	1
0	20594	3208	1
0	20656	3215	1
0	20667	3216	1
0	20692	3219	1
0	20702	3220	2
0	20728	3223	1
0	20797	3232	1
0	20845	3238	2
0	20856	3239	2
0	20867	3240	2
0	20928	3248	1
0	20970	3253	1
0	21028	3261	1
0	21039	3262	1
0	21065	3265	1
0	21145	3282	1
0	21151	3283	2
0	21160	3285	1
0	21171	3287	1
0	21210	3295	1
0	21223	3296	2
0	21261	3301	1
0	21279	3303	1
0	21333	3314	1
0	21355	3318	1
0	21381	3321	1
0	21405	3325	1
0	21443	3332	1
0	21453	3333	2
0	21459	3334	2
0	21498	3342	1
0	21566	3353	1
0	21692	3372	1
0	21711	3374	1
0	21730	3377	1
0	21739	3379	1
0	21772	3390	1
0	21779	3391	2
0	21785	3392	2
0	21822	3403	1
0	21885	3412	1
0	21911	3416	1
0	21940	3419	1
0	21953	3420	1
0	21983	3424	1
0	22017	3428	1
0	22038	3430	1
0	22080	3436	7
0	22086	3437	6
0	22104	3440	1
0	22161	3447	1
0	22173	3448	1
0	22205	3452	1
0	22395	3478	1
0	22413	3480	1
0	22430	3482	1
0	22452	3485	1
0	22459	3486	1
0	22480	3488	1
0	22522	3493	1
0	22532	3494	2
0	22543	3495	1
0	22557	3496	1
0	22587	3500	1
0	22598	3501	1
0	22659	3511	1
0	22670	3514	1
0	22701	3520	2
0	22734	3524	1
0	22745	3525	1
0	22773	3529	1
0	22783	3530	1
0	22806	3534	1
0	22870	3544	1
0	22902	3550	1
0	22936	3554	1
0	22969	3558	1
0	23006	3563	1
0	23046	3574	1
0	23091	3585	1
0	23102	3586	1
0	23112	3587	1
0	23153	3594	1
0	23169	3598	1
0	23190	3603	1
0	23227	3608	1
0	23238	3609	1
0	23277	3615	5
0	23300	3618	1
0	23338	3626	1
0	23350	3627	1
0	23360	3628	1
0	23402	3635	1
0	23414	3636	1
0	23425	3637	2
0	23435	3638	2
0	23446	3639	1
0	23494	3645	1
0	23504	3646	2
0	23532	3649	1
0	23563	3653	1
0	23590	3657	1
0	23665	3672	1
0	23679	3674	1
0	23723	3681	1
0	23738	3683	1
0	23750	3684	2
0	23915	3714	1
0	23946	3718	1
0	24010	3730	1
0	24055	3739	1
0	24082	3742	1
0	24091	3743	2
0	24117	3751	1
0	24130	3755	1
0	24146	3758	1
0	24165	3760	1
0	24175	3761	2
0	24201	3764	1
0	24226	3767	1
0	24271	3778	1
0	24342	3790	1
0	24355	3791	1
0	24389	3795	1
0	24454	3803	1
0	24467	3804	2
0	24478	3805	2
0	24525	3811	7
0	24535	3812	4
0	24546	3813	1
0	24661	3829	1
0	24685	3832	1
0	24740	3842	1
0	24767	3847	1
0	24787	3849	1
0	24796	3850	2
0	24810	3854	1
0	24816	3855	2
0	24879	3863	1
0	24890	3864	2
0	24917	3867	1
0	24950	3871	1
0	24967	3873	1
0	25049	3885	1
0	25062	3886	1
0	25073	3887	1
0	25093	3889	1
0	25198	3914	1
0	25210	3915	1
0	25219	3916	2
0	25279	3926	1
0	25328	3934	1
0	25339	3935	2
0	25371	3942	1
0	25378	3943	1
0	25401	3951	1
0	25411	3952	1
0	25422	3954	1
0	25441	3957	1
0	25523	3968	1
0	25655	3990	1
0	25673	3992	1
0	25704	3996	1
0	25789	4015	1
0	25799	4016	1
0	25809	4017	1
0	25832	4020	1
0	25867	4026	2
0	25899	4029	1
0	25969	4038	1
0	26008	4043	1
0	26093	4060	1
0	26118	4063	1
0	26130	4064	1
0	26191	4072	1
0	26202	4073	1
0	26229	4078	1
0	26251	4084	1
0	26266	4088	1
0	26329	4100	1
0	26353	4103	1
0	26370	4105	1
0	26403	4110	1
0	26417	4112	1
0	26437	4117	1
0	26447	4118	1
0	26456	4119	1
0	26485	4126	1
0	26496	4127	1
0	26507	4128	1
0	26634	4154	1
0	26680	4167	1
0	26694	4170	1
0	26701	4171	1
0	26708	4172	1
0	26742	4178	1
0	26763	4181	1
0	26806	4191	1
0	26898	4212	1
0	26921	4215	1
0	26975	4224	1
0	26984	4225	2
0	26995	4228	1
0	27032	4236	1
0	27038	4237	2
0	27055	4239	1
0	27068	4240	1
0	27119	4246	5
0	27135	4247	2
0	27147	4248	3
0	27172	4251	1
0	27218	4257	1
0	27273	4265	1
0	27305	4269	1
0	27330	4275	1
0	27360	4282	1
0	27374	4283	1
0	27413	4287	1
0	27424	4288	1
0	27441	4290	1
0	27460	4292	1
0	27471	4293	2
0	27485	4294	3
0	27495	4295	3
0	27594	4310	1
0	27612	4312	1
0	27711	4336	1
0	27750	4342	6
0	27768	4346	1
0	27817	4352	1
0	28024	4385	1
0	28056	4389	1
0	28075	4393	1
0	28125	4401	1
0	28139	4404	1
0	28149	4405	1
0	28314	4431	1
0	28325	4432	1
0	28336	4433	1
0	28389	4440	1
0	28401	4441	1
0	28424	4444	1
0	28457	4450	1
0	28463	4451	2
0	28474	4454	1
0	28584	4476	1
0	28590	4477	2
0	28675	4489	1
0	28722	4495	1
0	28769	4501	1
0	28802	4505	1
0	28929	4530	1
0	28943	4533	1
0	28956	4536	1
0	28994	4541	1
0	29001	4542	1
0	29035	4548	1
0	29049	4550	1
0	29059	4551	1
0	29104	4559	1
0	29115	4560	2
0	29124	4561	2
0	29131	4562	1
0	29153	4565	1
0	29159	4566	2
0	29179	4570	1
0	29196	4572	1
0	29224	4578	6
0	29260	4584	1
0	29282	4587	1
0	29325	4597	1
0	29345	4599	1
0	29414	4610	1
0	29420	4611	2
0	29433	4614	1
0	29451	4618	1
0	29516	4629	1
0	29543	4636	1
0	29567	4638	1
0	29580	4639	1
0	29652	4649	1
0	29702	4657	1
0	29713	4658	1
0	29721	4659	2
0	29736	4664	1
0	29747	4667	1
0	29775	4672	1
0	29816	4678	6
0	29822	4679	5
0	29848	4683	1
0	29917	4692	1
0	29982	4701	1
0	30011	4705	1
0	30071	4715	1
0	30151	4728	1
0	30203	4737	1
0	30213	4739	1
0	30219	4740	2
0	30235	4743	1
0	30306	4755	1
0	30360	4762	1
0	30402	4767	1
0	30486	4779	1
0	30503	4781	1
0	30516	4783	1
0	30525	4784	2
0	30554	4789	1
0	30608	4802	1
0	30619	4803	1
0	30630	4804	1
0	30681	4810	1
0	30691	4811	2
0	30709	4813	1
0	30772	4821	1
0	30802	4826	1
0	30918	4848	1
0	31001	4863	1
0	31036	4872	1
0	31063	4875	1
0	31074	4876	1
0	31126	4883	1
0	31152	4886	1
0	31190	4891	1
0	31209	4893	1
0	31227	4896	1
0	31257	4901	1
0	31296	4906	1
0	31352	4913	1
0	31389	4918	1
0	31430	4923	1
0	31464	4929	1
0	31476	4930	1
0	31499	4933	1
0	31602	4948	1
0	31615	4952	1
0	31622	4953	1
0	31637	4958	1
0	31644	4959	1
0	31676	4970	1
0	31744	4979	1
0	31805	4987	1
0	31851	4993	1
0	31894	4999	1
1	2618	420	1
1	2618	420	0
1	2674	428	1
1	2674	428	0
1	2750	448	1
1	2750	448	0
1	2755	449	1
1	2759	449	0
1	2830	464	1
1	2830	464	0
1	2888	473	1
1	2888	473	0
1	2918	477	1
1	2918	477	0
1	2919	477	1
1	2929	478	0
1	2938	479	1
1	2940	479	0
1	2958	483	1
1	2958	483	0
1	2965	484	1
1	2967	484	0
1	2978	487	1
1	2978	487	0
1	2986	488	1
1	2989	488	0
1	3041	496	1
1	3041	496	0
1	3060	498	1
1	3060	498	0
1	3069	499	1
1	3071	499	0
1	3106	506	1
1	3106	506	0
1	3150	513	1
1	3150	513	0
1	3206	522	1
1	3206	522	0
1	3207	522	1
1	3214	523	2
1	3217	523	1
1	3227	524	0
1	3253	529	1
1	3253	529	0
1	3254	529	1
1	3301	535	0
1	3318	537	1
1	3318	537	0
1	3364	543	1
1	3364	543	0
1	3374	544	1
1	3377	544	0
1	3392	546	1
1	3392	546	0
1	3400	547	1
1	3402	547	0
1	3424	553	1
1	3424	553	0
1	3439	557	1
1	3439	557	0
1	3476	564	1
1	3476	564	0
1	3495	566	1
1	3495	566	0
1	3527	571	1
1	3527	571	0
1	3528	571	1
1	3542	572	0
1	3551	573	1
1	3553	573	0
1	3652	586	1
1	3652	586	0
1	3682	590	1
1	3682	590	0
1	3711	594	1
1	3711	594	0
1	3785	611	1
1	3785	611	0
1	3786	611	1
1	3798	612	0
1	3813	614	1
1	3813	614	0
1	3832	616	1
1	3832	616	0
1	3855	619	1
1	3863	620	2
1	3871	622	1
1	3881	623	0
1	3908	626	1
1	3908	626	0
1	3947	631	1
1	3947	631	0
1	4119	664	1
1	4119	664	0
1	4128	666	1
1	4128	666	0
1	4174	675	1
1	4174	675	0
1	4187	678	1
1	4187	678	0
1	4209	682	1
1	4209	682	0
1	4224	684	1
1	4224	684	0
1	4286	694	1
1	4286	694	0
1	4306	696	1
1	4306	696	0
1	4343	701	1
1	4343	701	0
1	4353	702	1
1	4355	702	0
1	4429	714	1
1	4429	714	0
1	4439	715	1
1	4443	715	0
1	4472	719	1
1	4472	719	0
1	4502	724	1
1	4502	724	0
1	4512	725	1
1	4514	725	0
1	4525	727	1
1	4525	727	0
1	4543	730	1
1	4558	732	2
1	4564	733	1
1	4571	734	0
1	4613	741	1
1	4613	741	0
1	4638	746	1
1	4638	746	0
1	4665	749	1
1	4665	749	0
1	4689	752	1
1	4689	752	0
1	4714	757	1
1	4714	757	0
1	4724	758	1
1	4725	758	2
1	4727	758	1
1	4739	759	0
1	4816	770	1
1	4816	770	0
1	4827	771	1
1	4832	771	0
1	4851	773	1
1	4851	773	0
1	4960	788	1
1	4960	788	0
1	4961	788	1
1	4971	789	0
1	4989	791	1
1	4989	791	0
1	5026	797	1
1	5026	797	0
1	5049	800	1
1	5049	800	0
1	5050	800	1
1	5061	801	0
1	5070	802	1
1	5072	802	0
1	5081	803	1
1	5083	803	0
1	5107	806	1
1	5124	809	0
1	5206	824	1
1	5206	824	0
1	5219	828	1
1	5219	828	0
1	5230	831	1
1	5230	831	0
1	5292	839	1
1	5292	839	0
1	5356	848	1
1	5356	848	0
1	5391	852	1
1	5391	852	0
1	5400	853	1
1	5402	853	0
1	5422	855	1
1	5422	855	0
1	5446	858	1
1	5446	858	0
1	5497	865	1
1	5497	865	0
1	5545	870	1
1	5545	870	0
1	5609	878	1
1	5609	878	0
1	5648	883	1
1	5648	883	0
1	5665	885	1
1	5665	885	0
1	5674	886	1
1	5676	886	0
1	5699	889	1
1	5699	889	0
1	5762	898	1
1	5762	898	0
1	5808	904	1
1	5808	904	0
1	5870	912	1
1	5870	912	0
1	5894	915	1
1	5919	918	0
1	5966	924	1
1	5966	924	0
1	5978	925	1
1	5980	925	0
1	6039	933	1
1	6039	933	0
1	6040	933	1
1	6051	934	0
1	6097	940	1
1	6097	940	0
1	6106	941	1
1	6109	941	0
1	6118	942	1
1	6121	942	0
1	6140	944	1
1	6140	944	0
1	6150	945	1
1	6152	945	0
1	6182	949	1
1	6182	949	0
1	6200	951	1
1	6200	951	0
1	6246	957	1
1	6246	957	0
1	6303	965	1
1	6303	965	0
1	6312	966	1
1	6314	966	0
1	6325	968	1
1	6325	968	0
1	6365	976	1
1	6365	976	0
1	6473	992	1
1	6473	992	0
1	6522	998	1
1	6522	998	0
1	6531	999	1
1	6533	999	0
1	6577	1007	1
1	6577	1007	0
1	6598	1010	1
1	6598	1010	0
1	6631	1014	1
1	6631	1014	0
1	6638	1015	1
1	6639	1015	2
1	6641	1015	1
1	6647	1016	0
1	6652	1017	1
1	6655	1017	0
1	6719	1026	1
1	6719	1026	0
1	6728	1027	1
1	6730	1027	0
1	6775	1035	1
1	6775	1035	0
1	6780	1036	1
1	6782	1036	0
1	6787	1037	1
1	6791	1037	0
1	6857	1049	1
1	6857	1049	0
1	6894	1057	1
1	6894	1057	0
1	6902	1058	1
1	6904	1058	0
1	6935	1063	1
1	6935	1063	0
1	6966	1068	1
1	6966	1068	0
1	6994	1072	1
1	6994	1072	0
1	7102	1087	1
1	7102	1087	0
1	7109	1088	1
1	7111	1088	0
1	7150	1096	1
1	7150	1096	0
1	7170	1098	1
1	7193	1102	0
1	7212	1106	1
1	7212	1106	0
1	7239	1110	1
1	7239	1110	0
1	7240	1110	1
1	7247	1111	2
1	7248	1111	3
1	7250	1111	2
1	7256	1112	1
1	7262	1113	0
1	7275	1117	1
1	7275	1117	0
1	7353	1129	1
1	7353	1129	0
1	7385	1133	1
1	7385	1133	0
1	7437	1144	1
1	7437	1144	0
1	7500	1155	1
1	7500	1155	0
1	7515	1157	1
1	7515	1157	0
1	7609	1172	1
1	7609	1172	0
1	7642	1176	1
1	7642	1176	0
1	7652	1177	1
1	7654	1177	0
1	7747	1191	1
1	7747	1191	0
1	7859	1215	1
1	7859	1215	0
1	7869	1216	1
1	7872	1216	0
1	7920	1227	1
1	7920	1227	0
1	7921	1227	1
1	7931	1228	0
1	8037	1245	1
1	8037	1245	0
1	8042	1246	1
1	8044	1246	0
1	8049	1247	1
1	8051	1247	0
1	8101	1255	1
1	8101	1255	0
1	8141	1260	1
1	8141	1260	0
1	8152	1261	1
1	8156	1261	0
1	8187	1265	1
1	8187	1265	0
1	8196	1266	1
1	8198	1266	0
1	8229	1271	1
1	8229	1271	0
1	8265	1276	1
1	8265	1276	0
1	8340	1287	1
1	8340	1287	0
1	8341	1287	1
1	8355	1288	0
1	8406	1294	1
1	8406	1294	0
1	8432	1297	1
1	8432	1297	0
1	8455	1300	1
1	8455	1300	0
1	8492	1305	1
1	8492	1305	0
1	8533	1310	1
1	8533	1310	0
1	8557	1313	1
1	8557	1313	0
1	8567	1314	1
1	8570	1314	0
1	8590	1316	1
1	8590	1316	0
1	8626	1321	1
1	8632	1322	0
1	8653	1325	1
1	8653	1325	0
1	8692	1330	1
1	8692	1330	0
1	8723	1336	1
1	8723	1336	0
1	8730	1337	1
1	8733	1337	0
1	8740	1338	1
1	8741	1338	2
1	8745	1338	1
1	8751	1339	0
1	8774	1344	1
1	8774	1344	0
1	8827	1351	1
1	8827	1351	0
1	8851	1354	1
1	8851	1354	0
1	8869	1356	1
1	8869	1356	0
1	8900	1362	1
1	8900	1362	0
1	8933	1370	1
1	8933	1370	0
1	8959	1373	1
1	8959	1373	0
1	8968	1374	1
1	8972	1374	0
1	8995	1377	1
1	8995	1377	0
1	9064	1391	1
1	9064	1391	0
1	9104	1396	1
1	9104	1396	0
1	9178	1411	1
1	9178	1411	0
1	9185	1412	1
1	9188	1412	0
1	9195	1413	1
1	9229	1418	0
1	9230	1418	1
1	9231	1418	2
1	9241	1419	1
1	9249	1420	0
1	9254	1421	1
1	9256	1421	0
1	9275	1425	1
1	9275	1425	0
1	9300	1428	1
1	9300	1428	0
1	9335	1433	1
1	9335	1433	0
1	9336	1433	1
1	9345	1434	0
1	9352	1435	1
1	9356	1435	0
1	9379	1438	1
1	9379	1438	0
1	9380	1438	1
1	9392	1439	0
1	9401	1440	1
1	9403	1440	0
1	9412	1441	1
1	9414	1441	0
1	9428	1443	1
1	9428	1443	0
1	9474	1450	1
1	9474	1450	0
1	9501	1456	1
1	9501	1456	0
1	9545	1463	1
1	9545	1463	0
1	9579	1470	1
1	9579	1470	0
1	9588	1472	1
1	9588	1472	0
1	9620	1476	1
1	9620	1476	0
1	9639	1478	1
1	9659	1482	0
1	9667	1483	1
1	9669	1483	0
1	9703	1489	1
1	9703	1489	0
1	9717	1491	1
1	9717	1491	0
1	9794	1502	1
1	9794	1502	0
1	9870	1512	1
1	9870	1512	0
1	9903	1516	1
1	9903	1516	0
1	9929	1519	1
1	9929	1519	0
1	9939	1520	1
1	9942	1520	0
1	9959	1522	1
1	9959	1522	0
1	9984	1525	1
1	9984	1525	0
1	10011	1529	1
1	10011	1529	0
1	10054	1537	1
1	10054	1537	0
1	10100	1546	1
1	10100	1546	0
1	10195	1561	1
1	10195	1561	0
1	10239	1572	1
1	10239	1572	0
1	10281	1578	1
1	10281	1578	0
1	10319	1587	1
1	10319	1587	0
1	10437	1606	1
1	10437	1606	0
1	10438	1606	1
1	10449	1607	0
1	10458	1608	1
1	10474	1612	2
1	10478	1613	1
1	10485	1614	0
1	10492	1615	1
1	10496	1615	0
1	10523	1619	1
1	10523	1619	0
1	10535	1620	1
1	10537	1620	0
1	10546	1621	1
1	10549	1621	0
1	10558	1622	1
1	10564	1622	0
1	10608	1628	1
1	10608	1628	0
1	10609	1628	1
1	10610	1628	2
1	10621	1629	1
1	10631	1630	0
1	10649	1632	1
1	10649	1632	0
1	10692	1639	1
1	10692	1639	0
1	10706	1641	1
1	10706	1641	0
1	10743	1647	1
1	10743	1647	0
1	10800	1658	1
1	10800	1658	0
1	10811	1659	1
1	10814	1659	0
1	10839	1662	1
1	10839	1662	0
1	10857	1664	1
1	10857	1664	0
1	10906	1671	1
1	10906	1671	0
1	10951	1679	1
1	10951	1679	0
1	10952	1679	1
1	10968	1681	2
1	10988	1685	1
1	10989	1685	2
1	10995	1686	1
1	11000	1687	2
1	11004	1687	1
1	11015	1688	0
1	11022	1689	1
1	11026	1689	0
1	11048	1693	1
1	11048	1693	0
1	11060	1695	1
1	11060	1695	0
1	11067	1696	1
1	11070	1696	0
1	11077	1697	1
1	11081	1697	0
1	11121	1703	1
1	11121	1703	0
1	11144	1706	1
1	11144	1706	0
1	11145	1706	1
1	11155	1707	2
1	11157	1707	1
1	11166	1708	2
1	11167	1708	3
1	11169	1708	2
1	11179	1709	1
1	11186	1710	2
1	11189	1710	1
1	11199	1711	0
1	11204	1712	1
1	11206	1712	0
1	11218	1714	1
1	11218	1714	0
1	11225	1715	1
1	11227	1715	0
1	11236	1717	1
1	11236	1717	0
1	11273	1728	1
1	11273	1728	0
1	11283	1729	1
1	11284	1729	2
1	11285	1729	3
1	11288	1729	2
1	11298	1730	1
1	11309	1731	0
1	11385	1746	1
1	11385	1746	0
1	11408	1750	1
1	11408	1750	0
1	11448	1758	1
1	11448	1758	0
1	11481	1762	1
1	11481	1762	0
1	11511	1767	1
1	11511	1767	0
1	11523	1768	1
1	11527	1768	0
1	11536	1769	1
1	11538	1769	0
1	11561	1772	1
1	11561	1772	0
1	11618	1779	1
1	11618	1779	0
1	11635	1781	1
1	11635	1781	0
1	11644	1782	1
1	11645	1782	2
1	11647	1782	1
1	11657	1783	0
1	11664	1784	1
1	11670	1784	0
1	11677	1785	1
1	11681	1785	0
1	11780	1802	1
1	11780	1802	0
1	11796	1804	1
1	11796	1804	0
1	11804	1806	1
1	11828	1810	0
1	11856	1814	1
1	11856	1814	0
1	11871	1816	1
1	11871	1816	0
1	11876	1817	1
1	11878	1817	0
1	11892	1820	1
1	11892	1820	0
1	11906	1822	1
1	11906	1822	0
1	11947	1829	1
1	11947	1829	0
1	11964	1831	1
1	11964	1831	0
1	11971	1832	1
1	11974	1832	0
1	12006	1837	1
1	12006	1837	0
1	12024	1839	1
1	12024	1839	0
1	12034	1840	1
1	12036	1840	0
1	12103	1852	1
1	12103	1852	0
1	12120	1854	1
1	12120	1854	0
1	12140	1858	1
1	12140	1858	0
1	12141	1858	1
1	12153	1859	0
1	12263	1874	1
1	12263	1874	0
1	12324	1885	1
1	12324	1885	0
1	12403	1902	1
1	12403	1902	0
1	12467	1911	1
1	12467	1911	0
1	12488	1913	1
1	12489	1913	2
1	12497	1914	3
1	12523	1917	2
1	12534	1918	1
1	12544	1919	0
1	12567	1922	1
1	12567	1922	0
1	12591	1925	1
1	12591	1925	0
1	12619	1928	1
1	12619	1928	0
1	12628	1929	1
1	12631	1929	0
1	12714	1940	1
1	12714	1940	0
1	12846	1958	1
1	12846	1958	0
1	12918	1968	1
1	12918	1968	0
1	12919	1968	1
1	12929	1969	0
1	12969	1977	1
1	12969	1977	0
1	12978	1978	1
1	12980	1978	0
1	13003	1984	1
1	13003	1984	0
1	13061	1994	1
1	13061	1994	0
1	13110	2001	1
1	13110	2001	0
1	13124	2003	1
1	13124	2003	0
1	13144	2005	1
1	13144	2005	0
1	13145	2005	1
1	13157	2006	0
1	13174	2008	1
1	13174	2008	0
1	13207	2012	1
1	13214	2013	2
1	13220	2014	1
1	13226	2015	0
1	13248	2021	1
1	13248	2021	0
1	13291	2028	1
1	13291	2028	0
1	13292	2028	1
1	13303	2029	0
1	13324	2034	1
1	13324	2034	0
1	13341	2036	1
1	13341	2036	0
1	13403	2047	1
1	13403	2047	0
1	13464	2060	1
1	13464	2060	0
1	13484	2062	1
1	13484	2062	0
1	13498	2063	1
1	13500	2063	0
1	13509	2064	1
1	13511	2064	0
1	13576	2073	1
1	13576	2073	0
1	13607	2078	1
1	13607	2078	0
1	13627	2081	1
1	13627	2081	0
1	13647	2084	1
1	13647	2084	0
1	13700	2092	1
1	13700	2092	0
1	13705	2093	1
1	13707	2093	0
1	13739	2100	1
1	13739	2100	0
1	13753	2102	1
1	13753	2102	0
1	13767	2106	1
1	13783	2108	0
1	13820	2115	1
1	13820	2115	0
1	13827	2116	1
1	13829	2116	0
1	13834	2117	1
1	13836	2117	0
1	13890	2132	1
1	13890	2132	0
1	13900	2133	1
1	13902	2133	0
1	13964	2146	1
1	13964	2146	0
1	13969	2147	1
1	13977	2147	0
1	14027	2154	1
1	14027	2154	0
1	14036	2155	1
1	14038	2155	0
1	14068	2159	1
1	14068	2159	0
1	14088	2163	1
1	14088	2163	0
1	14123	2167	1
1	14123	2167	0
1	14168	2174	1
1	14168	2174	0
1	14201	2178	1
1	14201	2178	0
1	14202	2178	1
1	14216	2179	0
1	14233	2181	1
1	14233	2181	0
1	14250	2184	1
1	14250	2184	0
1	14288	2193	1
1	14288	2193	0
1	14289	2193	1
1	14296	2194	0
1	14334	2199	1
1	14345	2200	0
1	14394	2206	1
1	14394	2206	0
1	14431	2211	1
1	14431	2211	0
1	14476	2217	1
1	14476	2217	0
1	14501	2220	1
1	14501	2220	0
1	14511	2221	1
1	14513	2221	0
1	14520	2222	1
1	14521	2222	2
1	14523	2222	1
1	14529	2223	0
1	14534	2224	1
1	14537	2224	0
1	14672	2248	1
1	14672	2248	0
1	14688	2250	1
1	14688	2250	0
1	14697	2252	1
1	14697	2252	0
1	14764	2263	1
1	14764	2263	0
1	14765	2263	1
1	14775	2264	0
1	14853	2275	1
1	14853	2275	0
1	14906	2285	1
1	14906	2285	0
1	14925	2287	1
1	14925	2287	0
1	14948	2290	1
1	14948	2290	0
1	14965	2292	1
1	14965	2292	0
1	14981	2295	1
1	14981	2295	0
1	15003	2298	1
1	15026	2301	0
1	15044	2303	1
1	15044	2303	0
1	15053	2304	1
1	15055	2304	0
1	15083	2312	1
1	15083	2312	0
1	15104	2315	1
1	15104	2315	0
1	15120	2318	1
1	15120	2318	0
1	15152	2324	1
1	15152	2324	0
1	15163	2327	1
1	15163	2327	0
1	15172	2329	1
1	15172	2329	0
1	15232	2339	1
1	15232	2339	0
1	15292	2349	1
1	15292	2349	0
1	15349	2357	1
1	15349	2357	0
1	15350	2357	1
1	15366	2358	0
1	15397	2362	1
1	15397	2362	0
1	15423	2365	1
1	15423	2365	0
1	15487	2375	1
1	15487	2375	0
1	15513	2378	1
1	15513	2378	0
1	15589	2391	1
1	15589	2391	0
1	15625	2396	1
1	15625	2396	0
1	15763	2424	1
1	15763	2424	0
1	15810	2430	1
1	15810	2430	0
1	15828	2432	1
1	15828	2432	0
1	15860	2440	1
1	15860	2440	0
1	15917	2449	1
1	15917	2449	0
1	15946	2453	1
1	15946	2453	0
1	15957	2456	1
1	15957	2456	0
1	15971	2459	1
1	15971	2459	0
1	16004	2465	1
1	16004	2465	0
1	16037	2471	1
1	16037	2471	0
1	16062	2474	1
1	16062	2474	0
1	16112	2481	1
1	16112	2481	0
1	16178	2490	1
1	16178	2490	0
1	16236	2508	1
1	16236	2508	0
1	16263	2514	1
1	16263	2514	0
1	16323	2524	1
1	16323	2524	0
1	16331	2525	1
1	16332	2525	2
1	16336	2525	1
1	16346	2526	0
1	16355	2527	1
1	16357	2527	0
1	16374	2532	1
1	16374	2532	0
1	16375	2532	1
1	16385	2533	0
1	16419	2539	1
1	16419	2539	0
1	16424	2540	1
1	16427	2540	0
1	16463	2546	1
1	16463	2546	0
1	16468	2547	1
1	16475	2547	0
1	16482	2548	1
1	16483	2548	2
1	16488	2548	1
1	16498	2549	0
1	16546	2556	1
1	16546	2556	0
1	16578	2562	1
1	16578	2562	0
1	16585	2563	1
1	16586	2563	2
1	16588	2563	1
1	16594	2564	0
1	16608	2567	1
1	16608	2567	0
1	16609	2567	1
1	16620	2568	0
1	16652	2573	1
1	16652	2573	0
1	16670	2577	1
1	16670	2577	0
1	16694	2580	1
1	16694	2580	0
1	16717	2584	1
1	16717	2584	0
1	16728	2585	1
1	16729	2585	2
1	16731	2585	1
1	16741	2586	0
1	16801	2600	1
1	16801	2600	0
1	16858	2617	1
1	16858	2617	0
1	16884	2622	1
1	16888	2623	0
1	16897	2625	1
1	16897	2625	0
1	16898	2625	1
1	16904	2626	0
1	16909	2627	1
1	16911	2627	0
1	16930	2634	1
1	16930	2634	0
1	17031	2652	1
1	17031	2652	0
1	17069	2661	1
1	17069	2661	0
1	17083	2663	1
1	17083	2663	0
1	17084	2663	1
1	17094	2664	0
1	17103	2665	1
1	17105	2665	0
1	17186	2682	1
1	17186	2682	0
1	17199	2686	1
1	17199	2686	0
1	17200	2686	1
1	17209	2687	2
1	17212	2687	1
1	17221	2688	2
1	17224	2688	1
1	17233	2689	2
1	17237	2689	1
1	17246	2690	2
1	17248	2690	1
1	17258	2691	0
1	17289	2696	1
1	17289	2696	0
1	17321	2703	1
1	17321	2703	0
1	17447	2722	1
1	17447	2722	0
1	17600	2747	1
1	17600	2747	0
1	17607	2748	1
1	17609	2748	0
1	17709	2765	1
1	17709	2765	0
1	17734	2768	1
1	17734	2768	0
1	17751	2770	1
1	17751	2770	0
1	17772	2772	1
1	17772	2772	0
1	17817	2779	1
1	17817	2779	0
1	17863	2785	1
1	17863	2785	0
1	17888	2788	1
1	17888	2788	0
1	17928	2795	1
1	17928	2795	0
1	17933	2796	1
1	17935	2796	0
1	17944	2798	1
1	17944	2798	0
1	18025	2808	1
1	18025	2808	0
1	18045	2810	1
1	18045	2810	0
1	18073	2813	1
1	18073	2813	0
1	18084	2814	1
1	18086	2814	0
1	18130	2820	1
1	18130	2820	0
1	18168	2825	1
1	18168	2825	0
1	18205	2830	1
1	18205	2830	0
1	18263	2838	1
1	18263	2838	0
1	18283	2841	1
1	18302	2844	0
1	18340	2849	1
1	18340	2849	0
1	18367	2854	1
1	18367	2854	0
1	18496	2874	1
1	18496	2874	0
1	18511	2876	1
1	18511	2876	0
1	18571	2886	1
1	18571	2886	0
1	18688	2907	1
1	18688	2907	0
1	18689	2907	1
1	18698	2908	0
1	18705	2909	1
1	18712	2909	0
1	18733	2912	1
1	18733	2912	0
1	18782	2919	1
1	18782	2919	0
1	18791	2920	1
1	18794	2920	0
1	18902	2939	1
1	18902	2939	0
1	18907	2940	1
1	18910	2940	0