version 3
run Experimentos-76-20260514-09:20:58-3799
attr configname Experimentos
attr datetime 20260514-09:20:58
attr datetimef 20260514-092058
attr experiment Experimentos
attr inifile TwoQueues.ini
attr iterationvars "$p=0.6, $q=0.2, $Y=10, $m=5"
attr iterationvarsd p=0.6/q=0.2/Y=10/m=5
attr iterationvarsf p=0.6,q=0.2,Y=10,m=5-
attr measurement "$p=0.6, $q=0.2, $Y=10, $m=5"
attr network TwoQueues
attr processid 3799
attr repetition 16
attr replication #16
attr resultdir results
attr runnumber 76
attr seedset 76
itervar Y 10
itervar m 5
itervar p 0.6
itervar q 0.2
config description "Barrido completo de parámetros Proyecto 12"
config **.source1.p 0.6
config **.source1.q 0.2
config **.source2.p 0.6
config **.source2.q 0.2
config **.serverWithMaintenance.Y 10
config **.serverWithMaintenance.m 5
config network TwoQueues
config cpu-time-limit 5000s
config sim-time-limit 5000s
config warmup-period 400s
config repeat 20
config output-scalar-file results/Experimentos-p=0.6,q=0.2,Y=10,m=5--#16.sca
config output-vector-file results/Experimentos-p=0.6,q=0.2,Y=10,m=5--#16.vec
config **.vector-recording true

vector 0 TwoQueues.serverWithMaintenance residenceTime2:vector ETV
attr recordingmode vector
attr source delay2
attr title "Residence Time Class 2"
vector 1 TwoQueues.queue2 queueLengthStats:vector ETV
attr recordingmode vector
attr source qlen
attr title "Average Queue Length"
vector 2 TwoQueues.queue1 queueLengthStats:vector ETV
attr recordingmode vector
attr source qlen
attr title "Average Queue Length"
vector 3 TwoQueues.server residenceTime1:vector ETV
attr recordingmode vector
attr source delay1
attr title "Residence Time Class 1"
vector 4 TwoQueues.server throughputStats1:vector ETV
attr recordingmode vector
attr source throughput1
attr title "Throughput Class 1"
0	2533	404	2
0	2543	406	1
0	2549	407	2
0	2576	411	1
0	2596	413	1
0	2635	419	1
0	2646	420	1
0	2707	430	1
0	2733	434	1
0	2747	436	1
0	2770	442	6
0	2827	453	1
0	2841	455	1
0	2850	457	1
0	2924	466	1
0	2960	471	1
0	2971	472	1
0	3018	481	1
0	3029	483	1
0	3045	486	1
0	3089	492	4
0	3100	493	3
0	3125	498	1
0	3146	502	1
0	3174	506	1
0	3184	507	1
0	3202	509	1
0	3212	510	1
0	3300	522	1
0	3378	533	1
0	3418	540	1
0	3445	546	1
0	3477	552	1
0	3488	553	1
0	3551	564	1
0	3581	568	1
0	3603	571	1
0	3616	572	1
0	3708	586	1
0	3727	588	1
0	3772	596	1
0	3778	597	2
0	3791	601	1
0	3813	605	1
0	3864	615	1
0	3894	619	1
0	3940	628	1
0	4013	641	1
0	4078	657	1
0	4108	661	1
0	4141	667	5
0	4147	668	6
0	4153	669	6
0	4184	675	1
0	4195	676	2
0	4250	686	1
0	4357	702	1
0	4443	714	1
0	4484	719	1
0	4495	720	1
0	4572	731	1
0	4632	740	1
0	4638	741	2
0	4645	742	1
0	4700	754	1
0	4706	755	2
0	4728	761	1
0	4735	762	1
0	4746	763	1
0	4754	764	2
0	4789	770	6
0	4795	771	5
0	4801	772	3
0	4808	773	1
0	4849	782	1
0	4860	783	1
0	4883	788	1
0	4900	791	1
0	4906	792	2
0	4934	797	1
0	4964	803	2
0	5067	825	1
0	5114	832	1
0	5171	840	1
0	5195	845	1
0	5211	847	1
0	5230	849	1
0	5254	852	1
0	5271	854	1
0	5278	855	1
0	5305	861	6
0	5317	862	7
0	5328	863	5
0	5382	870	1
0	5391	871	2
0	5416	875	1
0	5506	889	1
0	5521	890	1
0	5563	896	1
0	5619	907	1
0	5651	913	7
0	5675	920	1
0	5685	921	1
0	5729	926	1
0	5770	931	1
0	5784	932	1
0	5810	935	1
0	5829	937	1
0	5858	941	1
0	5891	945	1
0	5936	951	7
0	5951	952	7
0	5964	953	1
0	6009	959	1
0	6019	960	2
0	6049	964	1
0	6065	966	1
0	6081	970	1
0	6164	982	1
0	6197	986	1
0	6245	992	7
0	6257	993	1
0	6268	994	1
0	6307	999	1
0	6331	1002	1
0	6363	1007	1
0	6386	1012	1
0	6396	1013	1
0	6426	1022	1
0	6444	1024	1
0	6495	1030	3
0	6506	1031	1
0	6605	1046	1
0	6616	1047	1
0	6654	1053	1
0	6663	1055	1
0	6805	1081	1
0	6846	1086	1
0	6918	1099	1
0	6928	1100	1
0	6975	1106	5
0	6984	1107	2
0	6990	1108	3
0	7017	1114	1
0	7040	1118	1
0	7112	1134	1
0	7119	1135	1
0	7135	1137	1
0	7222	1154	1
0	7281	1166	1
0	7329	1175	1
0	7353	1178	1
0	7365	1180	1
0	7378	1184	1
0	7419	1191	1
0	7431	1193	1
0	7501	1204	1
0	7557	1212	1
0	7591	1216	1
0	7665	1226	1
0	7697	1232	4
0	7708	1233	3
0	7720	1234	4
0	7730	1235	2
0	7816	1250	1
0	7823	1251	1
0	7895	1262	1
0	7905	1263	1
0	8019	1284	1
0	8037	1288	1
0	8075	1294	4
0	8109	1300	1
0	8121	1301	1
0	8133	1303	1
0	8157	1306	1
0	8202	1312	1
0	8282	1323	1
0	8294	1324	1
0	8319	1327	1
0	8338	1329	1
0	8378	1335	5
0	8387	1337	1
0	8409	1342	1
0	8419	1343	1
0	8497	1356	1
0	8520	1359	1
0	8568	1366	1
0	8612	1373	1
0	8635	1376	1
0	8667	1383	1
0	8707	1389	3
0	8717	1390	1
0	8835	1409	1
0	8852	1411	1
0	8885	1415	1
0	8895	1416	2
0	8905	1417	3
0	8937	1422	1
0	8961	1424	1
0	8984	1427	1
0	9029	1433	1
0	9136	1448	1
0	9149	1449	2
0	9229	1460	1
0	9240	1461	1
0	9256	1463	1
0	9283	1469	1
0	9292	1471	1
0	9301	1473	1
0	9308	1474	1
0	9352	1481	1
0	9362	1482	2
0	9391	1490	1
0	9428	1495	1
0	9468	1506	1
0	9500	1513	1
0	9523	1516	1
0	9572	1528	1
0	9579	1529	1
0	9597	1532	1
0	9662	1540	1
0	9682	1542	1
0	9709	1545	1
0	9884	1575	1
0	9903	1577	1
0	9934	1582	1
0	9950	1584	1
0	9960	1585	1
0	10004	1590	1
0	10016	1591	1
0	10063	1597	5
0	10146	1610	1
0	10169	1613	1
0	10201	1619	1
0	10236	1629	1
0	10247	1630	1
0	10265	1632	1
0	10276	1633	1
0	10289	1634	1
0	10301	1635	2
0	10333	1641	5
0	10343	1642	1
0	10379	1650	1
0	10389	1651	1
0	10494	1668	1
0	10591	1685	1
0	10609	1687	1
0	10617	1688	2
0	10623	1689	2
0	10630	1690	3
0	10653	1696	7
0	10660	1697	2
0	10669	1698	2
0	10697	1705	1
0	10707	1706	1
0	10732	1709	1
0	10784	1716	1
0	10854	1732	1
0	10879	1736	1
0	10889	1737	1
0	10920	1743	3
0	10972	1751	1
0	11046	1765	1
0	11092	1771	1
0	11103	1772	1
0	11121	1775	1
0	11153	1780	1
0	11209	1788	1
0	11235	1792	1
0	11311	1805	1
0	11356	1813	1
0	11388	1822	1
0	11450	1832	1
0	11468	1834	1
0	11481	1835	1
0	11515	1839	1
0	11622	1855	1
0	11636	1857	1
0	11682	1864	1
0	11696	1866	1
0	11732	1872	2
0	11756	1875	1
0	11788	1880	1
0	11870	1891	1
0	11897	1894	1
0	12054	1922	1
0	12064	1923	1
0	12071	1924	1
0	12130	1932	1
0	12149	1934	1
0	12193	1941	1
0	12205	1943	1
0	12236	1947	1
0	12302	1959	1
0	12312	1961	1
0	12321	1962	2
0	12330	1963	1
0	12355	1966	1
0	12390	1973	1
0	12406	1975	1
0	12489	1996	1
0	12510	2001	1
0	12530	2003	1
0	12547	2005	1
0	12557	2006	1
0	12584	2011	1
0	12598	2013	1
0	12610	2014	1
0	12620	2015	1
0	12644	2018	1
0	12683	2024	5
0	12696	2025	4
0	12705	2026	4
0	12711	2027	3
0	12718	2028	4
0	12730	2029	2
0	12741	2030	1
0	12760	2032	1
0	12777	2034	1
0	12789	2035	1
0	12814	2041	1
0	12823	2043	1
0	12885	2059	1
0	12940	2069	1
0	12951	2070	2
0	12996	2077	1
0	13056	2091	1
0	13102	2098	1
0	13114	2099	1
0	13125	2100	1
0	13170	2106	1
0	13194	2109	1
0	13207	2110	1
0	13217	2111	2
0	13227	2112	1
0	13234	2113	1
0	13292	2121	1
0	13316	2125	1
0	13406	2140	1
0	13417	2141	1
0	13448	2147	5
0	13458	2148	5
0	13467	2149	5
0	13506	2154	1
0	13517	2155	1
0	13655	2179	1
0	13728	2193	1
0	13737	2194	2
0	13762	2198	1
0	13799	2205	1
0	13844	2211	6
0	13857	2212	1
0	13984	2230	1
0	14060	2250	1
0	14128	2264	1
0	14138	2265	1
0	14151	2268	1
0	14195	2274	1
0	14220	2280	1
0	14240	2285	1
0	14313	2295	1
0	14325	2296	1
0	14335	2297	2
0	14442	2311	1
0	14512	2323	1
0	14519	2324	1
0	14542	2327	1
0	14605	2337	1
0	14617	2338	1
0	14634	2340	1
0	14666	2346	4
0	14681	2348	1
0	14693	2349	2
0	14739	2355	1
0	14751	2357	1
0	14846	2373	1
0	14869	2376	1
0	14883	2378	1
0	14906	2382	1
0	14933	2387	1
0	14970	2393	6
0	14980	2394	5
0	15004	2398	1
0	15015	2399	1
0	15026	2400	1
0	15035	2401	1
0	15059	2404	1
0	15084	2408	1
0	15118	2415	1
0	15127	2417	1
0	15165	2424	1
0	15250	2442	1
0	15272	2446	1
0	15281	2447	2
0	15342	2462	1
0	15378	2468	1
0	15430	2478	1
0	15461	2483	1
0	15496	2487	1
0	15538	2493	1
0	15588	2500	1
0	15599	2501	1
0	15611	2503	1
0	15640	2507	1
0	15678	2511	1
0	15752	2522	1
0	15768	2524	1
0	15784	2527	1
0	15817	2532	1
0	15836	2534	1
0	15885	2540	7
0	15944	2549	1
0	15955	2552	1
0	16096	2575	1
0	16141	2584	1
0	16155	2586	1
0	16192	2592	1
0	16235	2601	1
0	16260	2606	1
0	16318	2614	1
0	16359	2620	6
0	16388	2626	1
0	16408	2628	1
0	16456	2634	1
0	16466	2635	2
0	16512	2642	1
0	16518	2643	2
0	16542	2650	1
0	16562	2655	1
0	16617	2665	1
0	16688	2679	1
0	16705	2681	1
0	16762	2694	1
0	16768	2695	2
0	16779	2697	1
0	16801	2700	1
0	16810	2701	2
0	16817	2702	1
0	16844	2708	1
0	16851	2709	1
0	16905	2721	1
0	16952	2730	1
0	17071	2747	1
0	17089	2750	1
0	17125	2757	1
0	17152	2761	1
0	17260	2778	1
0	17274	2781	1
0	17306	2785	1
0	17376	2796	1
0	17490	2818	1
0	17551	2827	1
0	17577	2831	1
0	17586	2833	1
0	17627	2842	1
0	17640	2843	1
0	17671	2847	1
0	17701	2851	1
0	17748	2858	1
0	17758	2859	1
0	17802	2865	5
0	17813	2866	6
0	17824	2867	4
0	17864	2874	1
0	17875	2876	1
0	17939	2885	1
0	17994	2894	1
0	18001	2895	1
0	18036	2905	1
0	18064	2908	1
0	18108	2914	3
0	18117	2915	2
0	18143	2919	1
0	18157	2920	1
0	18169	2921	2
0	18182	2922	3
0	18193	2923	3
0	18202	2924	3
0	18211	2925	4
0	18219	2926	4
0	18300	2938	1
0	18320	2940	1
0	18339	2942	1
0	18356	2944	1
0	18402	2950	1
0	18412	2951	2
0	18422	2952	1
0	18445	2956	1
0	18495	2962	1
0	18532	2967	1
0	18577	2973	7
0	18609	2981	1
0	18628	2983	1
0	18665	2992	1
0	18677	2993	1
0	18700	2996	1
0	18712	2997	2
0	18722	2998	3
0	18732	2999	1
0	18742	3000	1
0	18781	3007	1
0	18822	3017	1
0	18840	3019	1
0	18866	3024	1
0	18894	3029	1
0	18900	3030	2
0	18910	3031	1
0	18942	3035	1
0	18957	3037	1
0	18966	3038	2
0	18984	3044	6
0	19002	3047	1
0	19020	3049	1
0	19051	3053	1
0	19069	3055	1
0	19091	3059	1
0	19124	3064	1
0	19143	3066	1
0	19183	3072	1
0	19203	3076	1
0	19235	3082	5
0	19246	3083	1
0	19262	3085	1
0	19271	3087	1
0	19368	3107	1
0	19380	3109	1
0	19389	3111	1
0	19407	3113	1
0	19459	3120	1
0	19475	3124	1
0	19508	3130	6
0	19542	3137	1
0	19560	3139	1
0	19570	3140	2
0	19582	3141	1
0	19600	3143	1
0	19677	3153	1
0	19736	3161	1
0	19779	3167	1
0	19789	3168	1
0	19825	3178	1
0	19866	3186	1
0	19874	3187	1
0	19884	3188	2
0	19912	3194	1
0	19958	3201	1
0	19981	3206	1
0	19991	3207	2
0	20003	3208	1
0	20015	3209	1
0	20063	3215	7
0	20076	3216	3
0	20096	3218	1
0	20127	3222	1
0	20176	3228	1
0	20207	3232	1
0	20225	3234	1
0	20235	3235	1
0	20245	3236	1
0	20295	3247	1
0	20326	3253	7
0	20338	3254	5
0	20348	3255	6
0	20394	3263	1
0	20415	3266	1
0	20425	3267	2
0	20435	3268	3
0	20448	3269	1
0	20466	3271	1
0	20477	3272	2
0	20519	3278	5
0	20530	3279	2
0	20563	3283	1
0	20574	3284	1
0	20610	3289	1
0	20640	3293	1
0	20652	3295	1
0	20706	3312	1
0	20716	3313	1
0	20733	3318	1
0	20776	3324	5
0	20798	3330	1
0	20827	3334	1
0	20983	3360	1
0	21002	3362	1
0	21026	3365	1
0	21047	3367	1
0	21126	3379	1
0	21177	3386	1
0	21189	3388	1
0	21231	3394	6
0	21242	3395	5
0	21254	3396	3
0	21264	3397	2
0	21273	3398	2
0	21286	3399	1
0	21373	3410	1
0	21383	3411	2
0	21401	3413	1
0	21451	3420	1
0	21490	3426	6
0	21501	3427	6
0	21570	3440	1
0	21693	3457	1
0	21718	3460	1
0	21727	3461	2
0	21736	3463	1
0	21745	3465	1
0	21756	3466	1
0	21768	3467	1
0	21807	3473	7
0	21814	3474	1
0	21824	3476	1
0	21830	3477	2
0	21842	3479	1
0	21854	3480	1
0	21873	3482	1
0	21905	3486	1
0	21943	3494	1
0	22006	3505	1
0	22058	3514	1
0	22089	3518	1
0	22098	3519	2
0	22116	3521	1
0	22134	3526	1
0	22147	3530	1
0	22215	3540	1
0	22261	3546	1
0	22311	3557	1
0	22329	3559	1
0	22362	3565	7
0	22371	3566	6
0	22378	3567	6
0	22384	3568	2
0	22410	3572	1
0	22451	3577	1
0	22518	3592	1
0	22527	3593	2
0	22557	3597	1
0	22610	3606	1
0	22659	3612	6
0	22712	3620	1
0	22740	3624	1
0	22753	3625	1
0	22763	3626	2
0	22773	3627	3
0	22784	3628	3
0	22792	3629	3
0	22810	3633	1
0	22837	3639	1
0	22883	3645	2
0	22949	3656	1
0	22965	3660	1
0	23060	3679	1
0	23072	3681	1
0	23079	3682	1
0	23191	3708	1
0	23199	3709	1
0	23208	3710	2
0	23243	3715	1
0	23307	3724	1
0	23316	3725	2
0	23363	3735	1
0	23465	3752	1
0	23474	3754	1
0	23485	3756	1
0	23541	3763	1
0	23554	3764	1
0	23584	3768	1
0	23631	3775	1
0	23666	3781	3
0	23801	3806	1
0	23820	3808	1
0	23830	3809	1
0	23840	3810	1
0	23897	3820	1
0	23911	3822	1
0	23925	3824	1
0	23964	3831	1
0	23982	3833	1
0	24006	3839	7
0	24026	3843	1
0	24091	3856	1
0	24101	3857	2
0	24113	3858	2
0	24125	3859	2
0	24222	3881	1
0	24232	3882	1
0	24300	3890	1
0	24350	3897	1
0	24400	3904	1
0	24412	3905	1
0	24457	3912	1
0	24474	3914	1
0	24533	3922	1
0	24540	3923	1
0	24547	3924	1
0	24554	3925	1
0	24569	3930	1
0	24615	3936	1
0	24651	3942	2
0	24663	3943	1
0	24675	3944	1
0	24687	3946	1
0	24719	3953	1
0	24752	3959	1
0	24815	3967	1
0	24826	3968	1
0	24844	3970	1
0	24920	3980	1
0	24968	3986	3
0	24979	3987	4
0	25003	3990	1
0	25015	3992	1
0	25026	3995	1
0	25033	3996	1
0	25070	4003	1
0	25079	4004	2
0	25100	4007	1
0	25230	4025	1
0	25279	4031	5
0	25289	4032	4
0	25323	4036	1
0	25348	4039	1
0	25415	4048	1
0	25526	4062	1
0	25537	4063	2
0	25593	4070	1
0	25638	4076	1
0	25693	4083	1
0	25739	4089	6
0	25749	4090	4
0	25759	4091	3
0	25885	4108	1
0	25917	4112	1
0	25944	4115	1
0	25955	4116	1
0	26036	4127	1
0	26047	4128	1
0	26076	4132	1
0	26117	4138	7
0	26206	4153	1
0	26215	4154	2
0	26224	4155	1
0	26247	4160	1
0	26256	4161	2
0	26266	4162	1
0	26275	4163	1
0	26296	4171	1
0	26312	4176	1
0	26353	4182	7
0	26359	4183	7
0	26365	4184	6
0	26376	4185	7
0	26386	4186	8
0	26398	4187	3
0	26406	4188	2
0	26427	4190	1
0	26459	4194	1
0	26535	4205	1
0	26563	4211	2
0	26585	4217	1
0	26592	4218	1
0	26599	4219	1
0	26642	4227	1
0	26682	4237	1
0	26737	4244	1
0	26798	4252	1
0	26824	4255	1
0	26837	4256	1
0	26946	4272	1
0	26965	4274	1
0	27092	4292	1
0	27098	4293	2
0	27119	4299	1
0	27196	4312	1
0	27214	4314	1
0	27270	4324	1
0	27397	4350	1
0	27406	4352	1
0	27432	4358	4
0	27443	4359	1
0	27467	4363	1
0	27496	4369	1
0	27503	4370	1
0	27521	4375	1
0	27560	4381	1
0	27574	4383	1
0	27654	4399	1
0	27675	4401	1
0	27721	4407	4
0	27730	4408	2
0	27782	4419	1
0	27794	4421	1
0	27828	4425	1
0	27871	4430	1
0	27914	4436	1
0	27998	4451	1
0	28008	4452	1
0	28020	4454	1
0	28065	4460	4
0	28133	4473	1
0	28153	4475	1
0	28170	4477	1
0	28179	4478	2
0	28197	4481	1
0	28235	4489	1
0	28278	4499	1
0	28295	4502	1
0	28301	4503	2
0	28344	4509	5
0	28391	4515	1
0	28403	4516	1
0	28465	4526	1
0	28541	4539	1
0	28551	4540	2
0	28621	4550	1
0	28688	4561	1
0	28704	4563	1
0	28713	4564	2
0	28735	4570	8
0	28746	4571	6
0	28756	4572	1
0	28787	4579	1
0	28821	4587	1
0	28863	4593	1
0	28912	4600	1
0	28921	4602	1
0	28932	4604	1
0	29028	4619	1
0	29064	4625	5
0	29074	4626	4
0	29105	4630	1
0	29185	4643	1
0	29195	4644	2
0	29240	4650	1
0	29250	4651	2
0	29304	4658	1
0	29355	4665	1
0	29397	4672	1
0	29426	4678	5
0	29436	4679	4
0	29445	4680	4
0	29452	4681	4
0	29462	4682	2
0	29470	4683	2
0	29480	4684	1
0	29558	4694	1
0	29568	4695	2
0	29639	4710	1
0	29672	4716	6
0	29682	4717	4
0	29730	4723	1
0	29743	4724	1
0	29754	4725	1
0	29765	4726	1
0	29841	4738	1
0	29852	4739	2
0	29864	4740	2
0	29885	4742	1
0	29933	4748	4
0	29943	4749	3
0	29955	4750	3
0	29966	4751	2
0	29993	4754	1
0	30016	4757	1
0	30027	4758	1
0	30056	4761	1
0	30069	4762	2
0	30081	4763	1
0	30126	4769	4
0	30237	4784	1
0	30284	4790	1
0	30322	4795	1
0	30368	4801	1
0	30379	4802	2
0	30452	4811	1
0	30469	4813	1
0	30486	4815	1
0	30526	4823	1
0	30575	4830	1
0	30593	4835	1
0	30602	4837	1
0	30646	4847	1
0	30777	4867	1
0	30784	4868	1
0	30791	4869	1
0	30801	4871	1
0	30812	4872	2
0	30845	4877	1
0	30894	4883	4
0	30906	4884	2
0	30928	4887	1
0	31073	4912	1
0	31191	4932	1
0	31220	4937	1
0	31243	4942	1
0	31274	4946	1
0	31287	4947	2
0	31299	4948	2
0	31344	4954	5
0	31350	4955	4
0	31357	4956	1
0	31367	4957	1
0	31399	4962	1
0	31406	4963	1
0	31416	4964	1
0	31429	4965	1
0	31453	4968	1
0	31485	4973	1
0	31530	4979	6
0	31537	4980	2
0	31543	4981	2
0	31564	4984	1
0	31594	4990	1
0	31613	4992	1
0	31622	4993	2
0	31638	4996	1
0	31645	4997	1
0	31662	4999	1
1	2523	402	1
1	2529	403	0
1	2538	405	1
1	2538	405	0
1	2539	405	1
1	2545	406	0
1	2567	410	1
1	2567	410	0
1	2589	412	1
1	2589	412	0
1	2624	418	1
1	2624	418	0
1	2637	419	1
1	2639	419	0
1	2700	429	1
1	2700	429	0
1	2729	433	1
1	2729	433	0
1	2741	435	1
1	2741	435	0
1	2748	436	1
1	2761	441	0
1	2823	452	1
1	2823	452	0
1	2835	454	1
1	2835	454	0
1	2846	456	1
1	2846	456	0
1	2916	465	1
1	2916	465	0
1	2953	470	1
1	2953	470	0
1	2962	471	1
1	2964	471	0
1	3014	480	1
1	3014	480	0
1	3023	482	1
1	3023	482	0
1	3039	485	1
1	3039	485	0
1	3062	488	1
1	3072	490	2
1	3081	491	1
1	3093	492	0
1	3119	497	1
1	3119	497	0
1	3140	501	1
1	3140	501	0
1	3168	505	1
1	3168	505	0
1	3175	506	1
1	3178	506	0
1	3194	508	1
1	3194	508	0
1	3204	509	1
1	3206	509	0
1	3293	521	1
1	3293	521	0
1	3371	532	1
1	3371	532	0
1	3414	539	1
1	3414	539	0
1	3441	545	1
1	3441	545	0
1	3473	551	1
1	3473	551	0
1	3478	552	1
1	3482	552	0
1	3544	563	1
1	3544	563	0
1	3574	567	1
1	3574	567	0
1	3596	570	1
1	3596	570	0
1	3605	571	1
1	3609	571	0
1	3701	585	1
1	3701	585	0
1	3720	587	1
1	3720	587	0
1	3767	595	1
1	3767	595	0
1	3768	595	1
1	3774	596	0
1	3787	600	1
1	3787	600	0
1	3805	604	1
1	3805	604	0
1	3855	614	1
1	3855	614	0
1	3886	618	1
1	3886	618	0
1	3936	627	1
1	3936	627	0
1	4006	640	1
1	4006	640	0
1	4072	656	1
1	4072	656	0
1	4101	660	1
1	4101	660	0
1	4115	662	1
1	4116	662	2
1	4119	663	3
1	4135	666	2
1	4143	667	1
1	4149	668	0
1	4176	674	1
1	4176	674	0
1	4177	674	1
1	4188	675	0
1	4243	685	1
1	4243	685	0
1	4350	701	1
1	4350	701	0
1	4436	713	1
1	4436	713	0
1	4476	718	1
1	4476	718	0
1	4486	719	1
1	4488	719	0
1	4564	730	1
1	4564	730	0
1	4627	739	1
1	4627	739	0
1	4628	739	1
1	4634	740	0
1	4639	741	1
1	4641	741	0
1	4695	753	1
1	4695	753	0
1	4696	753	1
1	4702	754	0
1	4724	760	1
1	4724	760	0
1	4729	761	1
1	4731	761	0
1	4736	762	1
1	4737	762	2
1	4740	762	1
1	4750	763	0
1	4755	764	1
1	4764	766	2
1	4782	769	1
1	4783	769	2
1	4791	770	1
1	4797	771	0
1	4802	772	1
1	4804	772	0
1	4842	781	1
1	4842	781	0
1	4851	782	1
1	4853	782	0
1	4877	787	1
1	4877	787	0
1	4893	790	1
1	4893	790	0
1	4894	790	1
1	4902	791	0
1	4926	796	1
1	4926	796	0
1	4956	801	1
1	4960	802	0
1	5060	824	1
1	5060	824	0
1	5108	831	1
1	5108	831	0
1	5164	839	1
1	5164	839	0
1	5189	844	1
1	5189	844	0
1	5203	846	1
1	5203	846	0
1	5221	848	1
1	5221	848	0
1	5247	851	1
1	5247	851	0
1	5265	853	1
1	5265	853	0
1	5272	854	1
1	5274	854	0
1	5279	855	1
1	5280	855	2
1	5288	858	3
1	5298	860	2
1	5310	861	1
1	5321	862	0
1	5373	869	1
1	5373	869	0
1	5374	869	1
1	5385	870	0
1	5409	874	1
1	5409	874	0
1	5497	888	1
1	5497	888	0
1	5508	889	1
1	5514	889	0
1	5556	895	1
1	5556	895	0
1	5612	906	1
1	5612	906	0
1	5613	906	1
1	5647	912	0
1	5671	919	1
1	5671	919	0
1	5676	920	1
1	5679	920	0
1	5717	925	1
1	5717	925	0
1	5763	930	1
1	5763	930	0
1	5772	931	1
1	5777	931	0
1	5803	934	1
1	5803	934	0
1	5822	936	1
1	5822	936	0
1	5851	940	1
1	5851	940	0
1	5883	944	1
1	5883	944	0
1	5884	944	1
1	5893	945	2
1	5929	950	1
1	5944	951	0
1	5953	952	1
1	5957	952	0
1	6001	958	1
1	6001	958	0
1	6002	958	1
1	6012	959	0
1	6043	963	1
1	6043	963	0
1	6058	965	1
1	6058	965	0
1	6077	969	1
1	6077	969	0
1	6157	981	1
1	6157	981	0
1	6189	985	1
1	6189	985	0
1	6190	985	1
1	6237	991	0
1	6247	992	1
1	6250	992	0
1	6259	993	1
1	6261	993	0
1	6299	998	1
1	6299	998	0
1	6325	1001	1
1	6325	1001	0
1	6356	1006	1
1	6356	1006	0
1	6382	1011	1
1	6382	1011	0
1	6387	1012	1
1	6390	1012	0
1	6420	1021	1
1	6420	1021	0
1	6435	1023	1
1	6435	1023	0
1	6468	1027	1
1	6487	1029	0
1	6497	1030	1
1	6499	1030	0
1	6598	1045	1
1	6598	1045	0
1	6607	1046	1
1	6609	1046	0
1	6650	1052	1
1	6650	1052	0
1	6659	1054	1
1	6659	1054	0
1	6795	1080	1
1	6795	1080	0
1	6834	1085	1
1	6834	1085	0
1	6911	1098	1
1	6911	1098	0
1	6920	1099	1
1	6922	1099	0
1	6936	1101	1
1	6966	1105	0
1	6967	1105	1
1	6968	1105	2
1	6978	1106	1
1	6986	1107	0
1	7013	1113	1
1	7013	1113	0
1	7036	1117	1
1	7036	1117	0
1	7108	1133	1
1	7108	1133	0
1	7113	1134	1
1	7115	1134	0
1	7127	1136	1
1	7127	1136	0
1	7218	1153	1
1	7218	1153	0
1	7275	1165	1
1	7275	1165	0
1	7322	1174	1
1	7322	1174	0
1	7346	1177	1
1	7346	1177	0
1	7361	1179	1
1	7361	1179	0
1	7374	1183	1
1	7374	1183	0
1	7412	1190	1
1	7412	1190	0
1	7427	1192	1
1	7427	1192	0
1	7493	1203	1
1	7493	1203	0
1	7548	1211	1
1	7548	1211	0
1	7584	1215	1
1	7584	1215	0
1	7657	1225	1
1	7657	1225	0
1	7678	1228	1
1	7688	1230	2
1	7689	1230	3
1	7693	1231	2
1	7702	1232	1
1	7709	1233	2
1	7714	1233	1
1	7724	1234	0
1	7812	1249	1
1	7812	1249	0
1	7817	1250	1
1	7819	1250	0
1	7889	1261	1
1	7889	1261	0
1	7896	1262	1
1	7899	1262	0
1	8015	1283	1
1	8015	1283	0
1	8031	1287	1
1	8031	1287	0
1	8048	1290	1
1	8069	1293	0
1	8101	1299	1
1	8101	1299	0
1	8111	1300	1
1	8114	1300	0
1	8129	1302	1
1	8129	1302	0
1	8149	1305	1
1	8149	1305	0
1	8192	1311	1
1	8192	1311	0
1	8275	1322	1
1	8275	1322	0
1	8284	1323	1
1	8287	1323	0
1	8310	1326	1
1	8310	1326	0
1	8330	1328	1
1	8330	1328	0
1	8348	1330	1
1	8374	1334	0
1	8383	1336	1
1	8383	1336	0
1	8403	1341	1
1	8403	1341	0
1	8411	1342	1
1	8413	1342	0
1	8490	1355	1
1	8490	1355	0
1	8512	1358	1
1	8512	1358	0
1	8559	1365	1
1	8559	1365	0
1	8605	1372	1
1	8605	1372	0
1	8629	1375	1
1	8629	1375	0
1	8660	1382	1
1	8660	1382	0
1	8690	1386	1
1	8703	1388	0
1	8708	1389	1
1	8711	1389	0
1	8826	1408	1
1	8826	1408	0
1	8845	1410	1
1	8845	1410	0
1	8875	1414	1
1	8875	1414	0
1	8876	1414	1
1	8877	1414	2
1	8888	1415	1
1	8898	1416	0
1	8928	1421	1
1	8928	1421	0
1	8950	1423	1
1	8950	1423	0
1	8977	1426	1
1	8977	1426	0
1	9022	1432	1
1	9022	1432	0
1	9127	1447	1
1	9127	1447	0
1	9128	1447	1
1	9142	1448	0
1	9222	1459	1
1	9222	1459	0
1	9231	1460	1
1	9233	1460	0
1	9250	1462	1
1	9250	1462	0
1	9279	1468	1
1	9279	1468	0
1	9288	1470	1
1	9288	1470	0
1	9297	1472	1
1	9297	1472	0
1	9302	1473	1
1	9304	1473	0
1	9344	1480	1
1	9344	1480	0
1	9345	1480	1
1	9355	1481	0
1	9382	1489	1
1	9382	1489	0
1	9420	1494	1
1	9420	1494	0
1	9464	1505	1
1	9464	1505	0
1	9492	1512	1
1	9492	1512	0
1	9517	1515	1
1	9517	1515	0
1	9568	1527	1
1	9568	1527	0
1	9573	1528	1
1	9575	1528	0
1	9591	1531	1
1	9591	1531	0
1	9654	1539	1
1	9654	1539	0
1	9673	1541	1
1	9673	1541	0
1	9698	1544	1
1	9698	1544	0
1	9877	1574	1
1	9877	1574	0
1	9895	1576	1
1	9895	1576	0
1	9925	1581	1
1	9925	1581	0
1	9944	1583	1
1	9944	1583	0
1	9951	1584	1
1	9954	1584	0
1	9994	1589	1
1	9994	1589	0
1	10006	1590	1
1	10009	1590	0
1	10025	1592	1
1	10055	1596	0
1	10138	1609	1
1	10138	1609	0
1	10163	1612	1
1	10163	1612	0
1	10195	1618	1
1	10195	1618	0
1	10232	1628	1
1	10232	1628	0
1	10237	1629	1
1	10241	1629	0
1	10258	1631	1
1	10258	1631	0
1	10267	1632	1
1	10269	1632	0
1	10278	1633	1
1	10279	1633	2
1	10282	1633	1
1	10294	1634	0
1	10310	1636	1
1	10327	1640	0
1	10335	1641	1
1	10337	1641	0
1	10375	1649	1
1	10375	1649	0
1	10380	1650	1
1	10383	1650	0
1	10486	1667	1
1	10486	1667	0
1	10585	1684	1
1	10585	1684	0
1	10602	1686	1
1	10602	1686	0
1	10603	1686	1
1	10610	1687	2
1	10611	1687	3
1	10613	1687	2
1	10619	1688	1
1	10624	1689	2
1	10626	1689	1
1	10648	1695	0
1	10649	1695	1
1	10654	1696	2
1	10656	1696	1
1	10663	1697	0
1	10691	1704	1
1	10691	1704	0
1	10699	1705	1
1	10701	1705	0
1	10723	1708	1
1	10723	1708	0
1	10777	1715	1
1	10777	1715	0
1	10848	1731	1
1	10848	1731	0
1	10871	1735	1
1	10871	1735	0
1	10881	1736	1
1	10883	1736	0
1	10900	1740	1
1	10913	1742	0
1	10964	1750	1
1	10964	1750	0
1	11037	1764	1
1	11037	1764	0
1	11085	1770	1
1	11085	1770	0
1	11094	1771	1
1	11096	1771	0
1	11117	1774	1
1	11117	1774	0
1	11140	1779	1
1	11140	1779	0
1	11201	1787	1
1	11201	1787	0
1	11225	1791	1
1	11225	1791	0
1	11300	1804	1
1	11300	1804	0
1	11349	1812	1
1	11349	1812	0
1	11382	1821	1
1	11382	1821	0
1	11443	1831	1
1	11443	1831	0
1	11461	1833	1
1	11461	1833	0
1	11470	1834	1
1	11474	1834	0
1	11508	1838	1
1	11508	1838	0
1	11618	1854	1
1	11618	1854	0
1	11630	1856	1
1	11630	1856	0
1	11676	1863	1
1	11676	1863	0
1	11690	1865	1
1	11690	1865	0
1	11717	1870	1
1	11726	1871	0
1	11748	1874	1
1	11748	1874	0
1	11784	1879	1
1	11784	1879	0
1	11862	1890	1
1	11862	1890	0
1	11890	1893	1
1	11890	1893	0
1	12047	1921	1
1	12047	1921	0
1	12056	1922	1
1	12058	1922	0
1	12065	1923	1
1	12067	1923	0
1	12121	1931	1
1	12121	1931	0
1	12140	1933	1
1	12140	1933	0
1	12187	1940	1
1	12187	1940	0
1	12201	1942	1
1	12201	1942	0
1	12228	1946	1
1	12228	1946	0
1	12296	1958	1
1	12296	1958	0
1	12307	1960	1
1	12307	1960	0
1	12308	1960	1
1	12315	1961	0
1	12322	1962	1
1	12326	1962	0
1	12346	1965	1
1	12346	1965	0
1	12386	1972	1
1	12386	1972	0
1	12399	1974	1
1	12399	1974	0
1	12483	1995	1
1	12483	1995	0
1	12503	2000	1
1	12503	2000	0
1	12522	2002	1
1	12522	2002	0
1	12540	2004	1
1	12540	2004	0
1	12549	2005	1
1	12551	2005	0
1	12576	2010	1
1	12576	2010	0
1	12592	2012	1
1	12592	2012	0
1	12600	2013	1
1	12603	2013	0
1	12612	2014	1
1	12614	2014	0
1	12637	2017	1
1	12637	2017	0
1	12653	2019	1
1	12665	2021	2
1	12671	2022	3
1	12677	2023	2
1	12685	2024	3
1	12686	2024	4
1	12689	2024	3
1	12699	2025	2
1	12707	2026	1
1	12712	2027	2
1	12714	2027	1
1	12724	2028	0
1	12731	2029	1
1	12735	2029	0
1	12751	2031	1
1	12751	2031	0
1	12770	2033	1
1	12770	2033	0
1	12779	2034	1
1	12782	2034	0
1	12810	2040	1
1	12810	2040	0
1	12819	2042	1
1	12819	2042	0
1	12879	2058	1
1	12879	2058	0
1	12931	2068	1
1	12931	2068	0
1	12932	2068	1
1	12944	2069	0
1	12992	2076	1
1	12992	2076	0
1	13050	2090	1
1	13050	2090	0
1	13094	2097	1
1	13094	2097	0
1	13104	2098	1
1	13107	2098	0
1	13116	2099	1
1	13118	2099	0
1	13162	2105	1
1	13162	2105	0
1	13186	2108	1
1	13186	2108	0
1	13196	2109	1
1	13197	2109	2
1	13200	2109	1
1	13210	2110	0
1	13219	2111	1
1	13221	2111	0
1	13228	2112	1
1	13230	2112	0
1	13284	2120	1
1	13284	2120	0
1	13307	2124	1
1	13307	2124	0
1	13399	2139	1
1	13399	2139	0
1	13408	2140	1
1	13410	2140	0
1	13424	2142	1
1	13427	2143	2
1	13430	2144	3
1	13440	2146	2
1	13451	2147	1
1	13461	2148	0
1	13499	2153	1
1	13499	2153	0
1	13508	2154	1
1	13510	2154	0
1	13648	2178	1
1	13648	2178	0
1	13719	2192	1
1	13719	2192	0
1	13720	2192	1
1	13731	2193	0
1	13756	2197	1
1	13756	2197	0
1	13795	2204	1
1	13795	2204	0
1	13800	2205	1
1	13836	2210	0
1	13846	2211	1
1	13850	2211	0
1	13976	2229	1
1	13976	2229	0
1	14056	2249	1
1	14056	2249	0
1	14122	2263	1
1	14122	2263	0
1	14129	2264	1
1	14132	2264	0
1	14147	2267	1
1	14147	2267	0
1	14188	2273	1
1	14188	2273	0
1	14214	2279	1
1	14214	2279	0
1	14236	2284	1
1	14236	2284	0
1	14305	2294	1
1	14305	2294	0
1	14315	2295	1
1	14316	2295	2
1	14318	2295	1
1	14328	2296	0
1	14435	2310	1
1	14435	2310	0
1	14508	2322	1
1	14508	2322	0
1	14513	2323	1
1	14515	2323	0
1	14534	2326	1
1	14534	2326	0
1	14599	2336	1
1	14599	2336	0
1	14606	2337	1
1	14611	2337	0
1	14626	2339	1
1	14626	2339	0
1	14647	2342	1
1	14660	2345	0
1	14674	2347	1
1	14674	2347	0
1	14675	2347	1
1	14686	2348	0
1	14732	2354	1
1	14732	2354	0
1	14747	2356	1
1	14747	2356	0
1	14838	2372	1
1	14838	2372	0
1	14863	2375	1
1	14863	2375	0
1	14877	2377	1
1	14877	2377	0
1	14900	2381	1
1	14900	2381	0
1	14927	2386	1
1	14927	2386	0
1	14935	2387	1
1	14943	2389	2
1	14964	2392	1
1	14974	2393	0
1	15000	2397	1
1	15000	2397	0
1	15005	2398	1
1	15009	2398	0
1	15016	2399	1
1	15020	2399	0
1	15027	2400	1
1	15031	2400	0
1	15051	2403	1
1	15051	2403	0
1	15078	2407	1
1	15078	2407	0
1	15114	2414	1
1	15114	2414	0
1	15123	2416	1
1	15123	2416	0
1	15158	2423	1
1	15158	2423	0
1	15243	2441	1
1	15243	2441	0
1	15267	2445	1
1	15267	2445	0
1	15268	2445	1
1	15275	2446	0
1	15335	2461	1
1	15335	2461	0
1	15369	2467	1
1	15369	2467	0
1	15426	2477	1
1	15426	2477	0
1	15450	2482	1
1	15450	2482	0
1	15486	2486	1
1	15486	2486	0
1	15531	2492	1
1	15531	2492	0
1	15579	2499	1
1	15579	2499	0
1	15590	2500	1
1	15592	2500	0
1	15607	2502	1
1	15607	2502	0
1	15632	2506	1
1	15632	2506	0
1	15667	2510	1
1	15667	2510	0
1	15744	2521	1
1	15744	2521	0
1	15762	2523	1
1	15762	2523	0
1	15780	2526	1
1	15780	2526	0
1	15809	2531	1
1	15809	2531	0
1	15828	2533	1
1	15828	2533	0
1	15829	2533	1
1	15878	2539	0
1	15938	2548	1
1	15938	2548	0
1	15951	2551	1
1	15951	2551	0
1	16092	2574	1
1	16092	2574	0
1	16134	2583	1
1	16134	2583	0
1	16149	2585	1
1	16149	2585	0
1	16184	2591	1
1	16184	2591	0
1	16229	2600	1
1	16229	2600	0
1	16254	2605	1
1	16254	2605	0
1	16309	2613	1
1	16309	2613	0
1	16320	2614	1
1	16353	2619	0
1	16380	2625	1
1	16380	2625	0
1	16399	2627	1
1	16399	2627	0
1	16448	2633	1
1	16448	2633	0
1	16449	2633	1
1	16459	2634	0
1	16505	2641	1
1	16505	2641	0
1	16506	2641	1
1	16514	2642	0
1	16538	2649	1
1	16538	2649	0
1	16558	2654	1
1	16558	2654	0
1	16613	2664	1
1	16613	2664	0
1	16681	2678	1
1	16681	2678	0
1	16699	2680	1
1	16699	2680	0
1	16757	2693	1
1	16757	2693	0
1	16758	2693	1
1	16764	2694	0
1	16773	2696	1
1	16773	2696	0
1	16792	2699	1
1	16792	2699	0
1	16793	2699	1
1	16804	2700	0
1	16811	2701	1
1	16813	2701	0
1	16840	2707	1
1	16840	2707	0
1	16845	2708	1
1	16847	2708	0
1	16897	2720	1
1	16897	2720	0
1	16945	2729	1
1	16945	2729	0
1	17064	2746	1
1	17064	2746	0
1	17085	2749	1
1	17085	2749	0
1	17119	2756	1
1	17119	2756	0
1	17144	2760	1
1	17144	2760	0
1	17256	2777	1
1	17256	2777	0
1	17267	2780	1
1	17267	2780	0
1	17298	2784	1
1	17298	2784	0
1	17372	2795	1
1	17372	2795	0
1	17482	2817	1
1	17482	2817	0
1	17543	2826	1
1	17543	2826	0
1	17571	2830	1
1	17571	2830	0
1	17582	2832	1
1	17582	2832	0
1	17620	2841	1
1	17620	2841	0
1	17629	2842	1
1	17633	2842	0
1	17663	2846	1
1	17663	2846	0
1	17692	2850	1
1	17692	2850	0
1	17741	2857	1
1	17741	2857	0
1	17750	2858	1
1	17752	2858	0
1	17762	2860	1
1	17763	2860	2
1	17784	2863	3
1	17792	2864	2
1	17806	2865	1
1	17817	2866	0
1	17860	2873	1
1	17860	2873	0
1	17869	2875	1
1	17869	2875	0
1	17932	2884	1
1	17932	2884	0
1	17990	2893	1
1	17990	2893	0
1	17995	2894	1
1	17997	2894	0
1	18032	2904	1
1	18032	2904	0
1	18057	2907	1
1	18057	2907	0
1	18086	2911	1
1	18100	2913	0
1	18101	2913	1
1	18111	2914	0
1	18135	2918	1
1	18135	2918	0
1	18145	2919	1
1	18146	2919	2
1	18147	2919	3
1	18150	2919	2
1	18159	2920	3
1	18162	2920	2
1	18171	2921	3
1	18172	2921	4
1	18175	2921	3
1	18184	2922	4
1	18186	2922	3
1	18196	2923	2
1	18205	2924	1
1	18215	2925	0
1	18293	2937	1
1	18293	2937	0
1	18312	2939	1
1	18312	2939	0
1	18330	2941	1
1	18330	2941	0
1	18349	2943	1
1	18349	2943	0
1	18393	2949	1
1	18393	2949	0
1	18394	2949	1
1	18405	2950	0
1	18414	2951	1
1	18416	2951	0
1	18438	2955	1
1	18438	2955	0
1	18487	2961	1
1	18487	2961	0
1	18523	2966	1
1	18523	2966	0
1	18524	2966	1
1	18570	2972	0
1	18602	2980	1
1	18602	2980	0
1	18619	2982	1
1	18619	2982	0
1	18657	2991	1
1	18657	2991	0
1	18667	2992	1
1	18670	2992	0
1	18690	2995	1
1	18690	2995	0
1	18691	2995	1
1	18692	2995	2
1	18705	2996	1
1	18715	2997	0
1	18724	2998	1
1	18726	2998	0
1	18733	2999	1
1	18736	2999	0
1	18774	3006	1
1	18774	3006	0
1	18815	3016	1
1	18815	3016	0
1	18832	3018	1
1	18832	3018	0
1	18859	3023	1
1	18859	3023	0
1	18889	3028	1
1	18889	3028	0
1	18890	3028	1
1	18896	3029	0
1	18901	3030	1
1	18904	3030	0
1	18935	3034	1
1	18935	3034	0
1	18950	3036	1
1	18950	3036	0
1	18951	3036	1
1	18960	3037	0
1	18967	3038	1
1	18980	3043	0
1	18994	3046	1
1	18994	3046	0
1	19010	3048	1
1	19010	3048	0
1	19044	3052	1
1	19044	3052	0
1	19062	3054	1
1	19062	3054	0