version 3
run Experimentos-44-20260514-09:20:57-3639
attr configname Experimentos
attr datetime 20260514-09:20:57
attr datetimef 20260514-092057
attr experiment Experimentos
attr inifile TwoQueues.ini
attr iterationvars "$p=0.6, $q=0.2, $Y=10, $m=4"
attr iterationvarsd p=0.6/q=0.2/Y=10/m=4
attr iterationvarsf p=0.6,q=0.2,Y=10,m=4-
attr measurement "$p=0.6, $q=0.2, $Y=10, $m=4"
attr network TwoQueues
attr processid 3639
attr repetition 4
attr replication #4
attr resultdir results
attr runnumber 44
attr seedset 44
itervar Y 10
itervar m 4
itervar p 0.6
itervar q 0.2
config description "Barrido completo de parámetros Proyecto 12"
config **.source1.p 0.6
config **.source1.q 0.2
config **.source2.p 0.6
config **.source2.q 0.2
config **.serverWithMaintenance.Y 10
config **.serverWithMaintenance.m 4
config network TwoQueues
config cpu-time-limit 5000s
config sim-time-limit 5000s
config warmup-period 400s
config repeat 20
config output-scalar-file results/Experimentos-p=0.6,q=0.2,Y=10,m=4--#4.sca
config output-vector-file results/Experimentos-p=0.6,q=0.2,Y=10,m=4--#4.vec
config **.vector-recording true

vector 0 TwoQueues.serverWithMaintenance residenceTime2:vector ETV
attr recordingmode vector
attr source delay2
attr title "Residence Time Class 2"
vector 1 TwoQueues.queue2 queueLengthStats:vector ETV
attr recordingmode vector
attr source qlen
attr title "Average Queue Length"
vector 2 TwoQueues.queue1 queueLengthStats:vector ETV
attr recordingmode vector
attr source qlen
attr title "Average Queue Length"
vector 3 TwoQueues.server residenceTime1:vector ETV
attr recordingmode vector
attr source delay1
attr title "Residence Time Class 1"
vector 4 TwoQueues.server throughputStats1:vector ETV
attr recordingmode vector
attr source throughput1
attr title "Throughput Class 1"
0	2591	403	1
0	2611	405	1
0	2662	412	1
0	2700	420	1
0	2775	435	1
0	2860	454	1
0	2884	457	1
0	2891	458	1
0	2943	466	1
0	2949	467	2
0	2979	472	1
0	3000	474	1
0	3013	475	1
0	3055	480	4
0	3065	481	4
0	3077	482	1
0	3103	485	1
0	3113	486	2
0	3141	490	1
0	3161	494	1
0	3302	517	1
0	3337	521	1
0	3364	524	1
0	3402	529	5
0	3466	538	1
0	3505	543	1
0	3551	549	1
0	3600	555	1
0	3611	556	2
0	3622	557	1
0	3655	561	1
0	3687	565	1
0	3742	571	1
0	3789	576	3
0	3799	577	3
0	3816	579	1
0	3879	588	1
0	3890	589	1
0	3907	591	1
0	3918	592	1
0	3956	597	1
0	3974	599	1
0	3986	600	1
0	4021	605	3
0	4031	606	2
0	4048	608	1
0	4064	610	1
0	4137	625	1
0	4202	634	1
0	4227	638	1
0	4262	642	1
0	4273	643	2
0	4282	644	2
0	4315	649	1
0	4326	650	1
0	4337	651	1
0	4369	655	1
0	4400	659	1
0	4426	662	1
0	4440	664	1
0	4461	668	1
0	4469	669	1
0	4479	670	2
0	4536	678	1
0	4546	679	2
0	4564	681	1
0	4570	682	2
0	4623	689	1
0	4668	696	1
0	4769	719	1
0	4797	728	1
0	4815	730	1
0	4835	732	1
0	4876	737	4
0	4886	738	5
0	4898	739	3
0	4907	740	2
0	4914	741	1
0	4998	753	1
0	5040	759	1
0	5147	781	1
0	5188	793	1
0	5206	796	1
0	5225	801	5
0	5261	809	1
0	5273	810	1
0	5292	812	1
0	5335	821	1
0	5346	823	1
0	5391	829	1
0	5409	832	1
0	5475	842	1
0	5491	844	1
0	5514	849	1
0	5554	855	1
0	5567	857	1
0	5591	861	1
0	5635	868	1
0	5650	873	1
0	5666	875	1
0	5733	889	1
0	5756	892	1
0	5777	895	1
0	5800	900	4
0	5814	902	1
0	5890	916	1
0	5907	918	1
0	5936	922	1
0	6044	940	1
0	6070	943	1
0	6155	956	1
0	6213	969	1
0	6330	990	1
0	6374	995	4
0	6385	996	3
0	6395	997	2
0	6406	998	1
0	6442	1002	1
0	6510	1011	1
0	6521	1012	1
0	6541	1014	1
0	6551	1015	2
0	6581	1020	1
0	6657	1036	1
0	6675	1038	1
0	6694	1041	1
0	6701	1042	1
0	6730	1049	1
0	6776	1056	1
0	6844	1065	1
0	6862	1069	1
0	6885	1071	1
0	6932	1077	1
0	6975	1082	5
0	6986	1083	5
0	7003	1085	1
0	7027	1088	1
0	7038	1089	1
0	7066	1094	1
0	7120	1104	1
0	7132	1105	2
0	7214	1118	1
0	7225	1121	1
0	7256	1128	1
0	7265	1129	2
0	7288	1132	1
0	7346	1142	1
0	7407	1155	1
0	7443	1162	1
0	7460	1164	1
0	7508	1172	1
0	7576	1185	1
0	7599	1190	1
0	7641	1198	1
0	7682	1206	1
0	7825	1231	1
0	7851	1234	1
0	7860	1235	2
0	7875	1240	1
0	7921	1252	1
0	7931	1253	1
0	7994	1268	1
0	8003	1269	2
0	8035	1274	3
0	8044	1275	2
0	8056	1276	1
0	8092	1288	1
0	8110	1292	1
0	8145	1297	1
0	8169	1303	1
0	8205	1313	1
0	8216	1314	1
0	8229	1315	1
0	8271	1320	6
0	8280	1321	5
0	8287	1322	4
0	8293	1323	2
0	8332	1330	1
0	8436	1346	1
0	8454	1348	1
0	8472	1350	1
0	8513	1355	1
0	8528	1356	2
0	8567	1361	7
0	8579	1362	6
0	8590	1363	6
0	8602	1364	6
0	8612	1365	6
0	8630	1367	1
0	8639	1368	2
0	8652	1372	1
0	8697	1382	1
0	8707	1383	1
0	8730	1388	5
0	8736	1389	6
0	8742	1390	6
0	8748	1391	6
0	8759	1392	6
0	8771	1393	7
0	8781	1394	2
0	8831	1400	1
0	8856	1403	1
0	8909	1410	1
0	8990	1421	1
0	9019	1424	1
0	9036	1426	1
0	9056	1428	1
0	9067	1429	1
0	9131	1438	1
0	9143	1439	2
0	9157	1440	2
0	9225	1450	1
0	9232	1451	1
0	9273	1458	1
0	9304	1462	1
0	9332	1468	1
0	9339	1469	1
0	9355	1472	1
0	9368	1476	1
0	9386	1480	1
0	9397	1483	1
0	9411	1485	1
0	9518	1502	1
0	9556	1507	3
0	9566	1508	3
0	9586	1511	1
0	9629	1521	1
0	9698	1531	1
0	9710	1532	2
0	9721	1533	2
0	9732	1534	3
0	9746	1537	1
0	9768	1543	1
0	9796	1548	3
0	9846	1554	1
0	9929	1565	1
0	9968	1570	1
0	9986	1572	1
0	9999	1573	1
0	10030	1577	1
0	10083	1584	1
0	10095	1585	2
0	10105	1586	2
0	10136	1591	5
0	10164	1595	1
0	10183	1598	1
0	10194	1599	1
0	10287	1612	1
0	10328	1617	1
0	10340	1618	1
0	10435	1631	1
0	10445	1632	2
0	10484	1638	1
0	10526	1643	4
0	10536	1644	5
0	10547	1645	1
0	10567	1647	1
0	10578	1648	1
0	10635	1658	1
0	10667	1662	1
0	10676	1663	2
0	10698	1669	1
0	10713	1674	1
0	10736	1679	2
0	10768	1686	1
0	10779	1687	1
0	10787	1688	2
0	10829	1695	1
0	10861	1700	1
0	10876	1704	1
0	10889	1706	1
0	10899	1707	2
0	10910	1708	1
0	10993	1718	1
0	11004	1719	1
0	11042	1724	1
0	11083	1729	1
0	11122	1734	1
0	11140	1736	1
0	11184	1742	1
0	11237	1749	1
0	11247	1750	1
0	11272	1753	1
0	11305	1758	3
0	11315	1759	2
0	11337	1761	1
0	11379	1766	1
0	11526	1788	1
0	11539	1789	1
0	11555	1791	1
0	11588	1796	1
0	11655	1805	1
0	11767	1825	1
0	11832	1838	1
0	11871	1848	1
0	11877	1849	2
0	11968	1864	1
0	12066	1881	1
0	12073	1882	1
0	12175	1904	1
0	12198	1907	1
0	12237	1914	1
0	12314	1927	1
0	12356	1932	2
0	12367	1933	1
0	12411	1938	1
0	12421	1939	2
0	12431	1940	3
0	12514	1951	1
0	12546	1955	1
0	12570	1958	1
0	12581	1959	1
0	12714	1977	1
0	12757	1982	1
0	12831	1992	1
0	12875	1998	1
0	12893	2000	1
0	12912	2002	1
0	13012	2015	1
0	13031	2017	1
0	13056	2020	1
0	13114	2028	1
0	13158	2033	1
0	13199	2038	2
0	13209	2039	2
0	13244	2042	1
0	13274	2046	1
0	13345	2056	1
0	13432	2067	1
0	13449	2069	1
0	13503	2077	1
0	13545	2082	1
0	13585	2087	1
0	13617	2092	2
0	13635	2096	1
0	13649	2098	1
0	13656	2099	1
0	13667	2100	1
0	13680	2101	1
0	13691	2102	2
0	13702	2103	3
0	13742	2108	1
0	13756	2109	1
0	13789	2114	4
0	13801	2116	1
0	13816	2121	1
0	13845	2125	1
0	13851	2126	2
0	13868	2132	1
0	13877	2134	1
0	13885	2135	1
0	13891	2136	2
0	13898	2137	1
0	13933	2142	3
0	13972	2147	1
0	13990	2149	1
0	14027	2154	1
0	14072	2160	1
0	14095	2166	1
0	14180	2179	1
0	14199	2181	1
0	14223	2184	1
0	14233	2186	1
0	14250	2191	6
0	14260	2192	6
0	14268	2193	4
0	14274	2194	3
0	14379	2209	1
0	14476	2223	1
0	14488	2224	1
0	14586	2240	1
0	14603	2242	1
0	14621	2244	1
0	14658	2251	1
0	14718	2258	1
0	14782	2267	1
0	14857	2277	1
0	14867	2278	2
0	14920	2285	1
0	14938	2288	1
0	14961	2291	1
0	14992	2295	1
0	15044	2305	1
0	15068	2310	2
0	15120	2317	1
0	15130	2318	2
0	15166	2324	1
0	15173	2325	1
0	15186	2329	1
0	15193	2330	1
0	15249	2339	1
0	15302	2350	1
0	15312	2351	2
0	15353	2356	5
0	15366	2357	1
0	15375	2358	2
0	15385	2359	1
0	15405	2363	1
0	15420	2367	1
0	15447	2371	1
0	15465	2373	1
0	15490	2376	1
0	15541	2386	1
0	15585	2400	1
0	15592	2401	1
0	15632	2409	1
0	15658	2412	1
0	15702	2421	1
0	15716	2425	1
0	15726	2426	2
0	15734	2427	2
0	15771	2434	1
0	15784	2435	1
0	15872	2452	1
0	15892	2457	1
0	15925	2462	1
0	15978	2476	1
0	15989	2479	1
0	16036	2490	1
0	16086	2501	1
0	16111	2504	1
0	16121	2505	1
0	16135	2508	1
0	16174	2513	6
0	16184	2514	2
0	16195	2515	3
0	16204	2516	2
0	16215	2517	1
0	16265	2524	1
0	16297	2530	1
0	16313	2533	1
0	16340	2537	1
0	16381	2543	1
0	16411	2548	4
0	16443	2554	1
0	16464	2558	1
0	16475	2559	1
0	16490	2561	1
0	16513	2564	1
0	16539	2568	1
0	16663	2592	1
0	16669	2593	2
0	16676	2594	1
0	16725	2599	4
0	16737	2600	4
0	16747	2601	3
0	16759	2602	3
0	16778	2604	1
0	16789	2605	2
0	16800	2606	1
0	16852	2613	1
0	16862	2614	2
0	16874	2615	1
0	16915	2620	3
0	16925	2621	4
0	16934	2622	4
0	16972	2627	1
0	17012	2632	1
0	17032	2634	1
0	17071	2639	1
0	17104	2643	1
0	17113	2644	2
0	17120	2645	1
0	17144	2650	3
0	17153	2651	2
0	17223	2661	1
0	17248	2664	1
0	17257	2665	2
0	17263	2666	3
0	17299	2674	1
0	17341	2681	1
0	17364	2684	1
0	17534	2715	1
0	17567	2720	4
0	17578	2722	1
0	17596	2726	1
0	17612	2729	1
0	17644	2733	1
0	17653	2734	2
0	17688	2742	1
0	17698	2743	1
0	17723	2747	1
0	17827	2769	1
0	17851	2774	5
0	17899	2783	1
0	17920	2786	1
0	17994	2796	1
0	18004	2797	2
0	18028	2801	1
0	18114	2819	1
0	18144	2824	1
0	18187	2829	1
0	18210	2832	1
0	18246	2841	1
0	18260	2844	1
0	18272	2845	1
0	18284	2846	1
0	18323	2851	1
0	18368	2858	1
0	18388	2862	1
0	18406	2866	1
0	18554	2888	1
0	18582	2891	1
0	18622	2896	5
0	18653	2900	1
0	18716	2909	1
0	18778	2924	1
0	18806	2933	1
0	18815	2935	1
0	18826	2936	1
0	18868	2942	1
0	18947	2955	1
0	19027	2966	1
0	19067	2971	6
0	19076	2972	5
0	19082	2973	4
0	19101	2976	1
0	19122	2979	1
0	19143	2982	1
0	19170	2985	1
0	19181	2986	1
0	19203	2988	1
0	19255	2995	1
0	19395	3014	1
0	19453	3022	1
0	19463	3023	1
0	19493	3028	1
0	19519	3031	1
0	19574	3041	1
0	19608	3046	1
0	19618	3047	2
0	19628	3048	1
0	19717	3070	1
0	19756	3075	5
0	19767	3076	1
0	19864	3089	1
0	19876	3090	1
0	19909	3096	1
0	19928	3098	1
0	19939	3099	1
0	20023	3110	1
0	20137	3131	1
0	20348	3165	1
0	20380	3173	1
0	20389	3175	1
0	20401	3177	1
0	20431	3181	1
0	20442	3182	1
0	20484	3187	1
0	20554	3199	1
0	20575	3201	1
0	20606	3205	1
0	20622	3209	1
0	20650	3214	4
0	20700	3220	1
0	20719	3221	1
0	20730	3222	2
0	20741	3223	1
0	20911	3247	1
0	20935	3250	1
0	20953	3252	1
0	21013	3260	1
0	21025	3261	1
0	21054	3266	3
0	21065	3267	3
0	21088	3270	1
0	21103	3271	1
0	21155	3278	1
0	21178	3281	1
0	21201	3284	1
0	21211	3285	1
0	21366	3310	1
0	21391	3316	1
0	21414	3321	4
0	21439	3325	1
0	21449	3326	1
0	21482	3331	1
0	21495	3332	2
0	21504	3333	2
0	21513	3334	3
0	21523	3335	2
0	21536	3336	3
0	21549	3337	4
0	21587	3342	7
0	21621	3346	1
0	21632	3347	1
0	21652	3349	1
0	21697	3357	1
0	21710	3359	1
0	21723	3360	2
0	21788	3371	1
0	21800	3372	1
0	21854	3382	1
0	21961	3400	1
0	22023	3411	1
0	22056	3416	1
0	22105	3423	1
0	22124	3427	1
0	22136	3428	2
0	22153	3430	1
0	22199	3437	1
0	22208	3438	2
0	22219	3440	1
0	22258	3445	5
0	22268	3446	5
0	22278	3447	5
0	22304	3452	1
0	22347	3459	1
0	22395	3470	1
0	22449	3483	1
0	22472	3486	1
0	22485	3490	1
0	22507	3493	1
0	22532	3498	6
0	22539	3499	1
0	22555	3502	1
0	22562	3503	1
0	22592	3510	1
0	22602	3511	2
0	22639	3519	1
0	22662	3523	1
0	22676	3525	1
0	22757	3538	1
0	22783	3543	5
0	22794	3544	6
0	22806	3545	1
0	22817	3546	1
0	22839	3550	1
0	22849	3551	1
0	22894	3561	1
0	22901	3562	1
0	22914	3563	1
0	22997	3578	1
0	23052	3585	1
0	23129	3597	1
0	23140	3598	1
0	23146	3599	2
0	23174	3603	1
0	23208	3609	1
0	23227	3611	1
0	23239	3613	1
0	23250	3615	1
0	23323	3625	1
0	23349	3630	5
0	23459	3651	1
0	23484	3654	1
0	23506	3657	1
0	23586	3669	1
0	23599	3670	2
0	23609	3671	2
0	23621	3672	1
0	23635	3673	1
0	23676	3680	1
0	23743	3690	1
0	23773	3695	1
0	23793	3699	1
0	23800	3700	1
0	23807	3701	1
0	23836	3707	1
0	23891	3718	1
0	23922	3726	1
0	23956	3732	1
0	23975	3735	1
0	23998	3740	5
0	24024	3744	1
0	24031	3745	1
0	24060	3749	1
0	24077	3751	1
0	24088	3752	1
0	24112	3758	1
0	24129	3760	1
0	24261	3781	1
0	24272	3782	1
0	24306	3787	4
0	24317	3788	4
0	24334	3790	1
0	24344	3791	1
0	24383	3797	1
0	24393	3798	1
0	24409	3800	1
0	24420	3801	1
0	24426	3802	2
0	24465	3809	1
0	24519	3816	1
0	24544	3819	1
0	24564	3821	1
0	24583	3823	1
0	24595	3824	1
0	24610	3825	2
0	24652	3831	1
0	24671	3833	1
0	24694	3837	1
0	24706	3838	1
0	24790	3854	1
0	24801	3855	1
0	24822	3859	1
0	24831	3861	1
0	24897	3874	1
0	24920	3877	1
0	24972	3889	1
0	24981	3891	1
0	25002	3895	1
0	25033	3903	1
0	25066	3908	2
0	25077	3909	2
0	25092	3910	1
0	25131	3915	1
0	25199	3928	1
0	25229	3932	1
0	25247	3935	1
0	25273	3937	1
0	25361	3949	1
0	25403	3954	1
0	25443	3959	5
0	25455	3960	2
0	25472	3962	1
0	25523	3969	1
0	25535	3970	2
0	25566	3975	1
0	25591	3978	1
0	25620	3982	1
0	25632	3985	1
0	25641	3986	2
0	25677	3991	5
0	25689	3992	1
0	25711	3994	1
0	25729	3996	1
0	25771	4002	1
0	25783	4003	1
0	25876	4016	1
0	25912	4020	1
0	25923	4021	1
0	25944	4023	1
0	25983	4028	5
0	25996	4029	6
0	26014	4031	1
0	26038	4034	1
0	26056	4038	1
0	26071	4040	1
0	26166	4053	1
0	26240	4066	1
0	26315	4077	1
0	26326	4078	1
0	26401	4091	1
0	26437	4095	1
0	26457	4097	1
0	26598	4117	1
0	26609	4118	2
0	26620	4119	2
0	26664	4125	1
0	26678	4128	1
0	26691	4129	2
0	26715	4131	1
0	26758	4136	4
0	26768	4137	4
0	26779	4138	4
0	26796	4140	1
0	26807	4141	1
0	26818	4142	1
0	26829	4143	1
0	26841	4144	1
0	26918	4158	1
0	26928	4159	1
0	26976	4166	1
0	26987	4167	2
0	27091	4189	1
0	27112	4192	1
0	27128	4194	1
0	27140	4195	1
0	27234	4214	1
0	27248	4218	1
0	27254	4219	2
0	27304	4229	1
0	27329	4234	4
0	27341	4235	3
0	27374	4241	1
0	27398	4244	1
0	27424	4247	1
0	27436	4248	1
0	27446	4249	2
0	27458	4250	2
0	27515	4258	1
0	27526	4259	1
0	27550	4264	6
0	27569	4266	1
0	27580	4267	2
0	27589	4268	2
0	27720	4290	1
0	27749	4293	1
0	27830	4306	1
0	27850	4311	1
0	27880	4316	1
0	27948	4330	1
0	27976	4335	4
0	27987	4336	1
0	27993	4337	2
0	28006	4340	1
0	28018	4342	1
0	28062	4350	1
0	28097	4355	1
0	28113	4357	1
0	28136	4361	1
0	28218	4375	1
0	28253	4380	5
0	28289	4386	1
0	28336	4394	1
0	28368	4399	1
0	28406	4404	1
0	28430	4406	1
0	28505	4418	1
0	28516	4419	1
0	28532	4421	1
0	28541	4423	1
0	28557	4428	5
0	28662	4445	1
0	28694	4449	1
0	28705	4450	1
0	28755	4457	1
0	28774	4459	1
0	28799	4462	1
0	28852	4469	1
0	28864	4470	1
0	28875	4471	2
0	28975	4488	1
0	29040	4499	1
0	29049	4501	1
0	29119	4512	1
0	29130	4513	1
0	29147	4515	1
0	29184	4522	1
0	29195	4523	1
0	29257	4539	1
0	29271	4540	1
0	29394	4563	1
0	29437	4571	1
0	29541	4587	1
0	29577	4592	1
0	29618	4599	1
0	29635	4601	1
0	29669	4608	1
0	29684	4613	1
0	29714	4623	1
0	29724	4624	1
0	29784	4633	1
0	29812	4638	1
0	29892	4650	1
0	29916	4655	1
0	29938	4658	1
0	30002	4667	1
0	30028	4671	1
0	30070	4678	1
0	30119	4691	1
0	30158	4698	1
0	30182	4703	2
0	30192	4704	2
0	30203	4705	2
0	30215	4706	1
0	30247	4710	1
0	30259	4711	1
0	30280	4713	1
0	30299	4715	1
0	30308	4716	2
0	30317	4717	3
0	30345	4722	1
0	30354	4724	1
0	30372	4727	1
0	30388	4729	1
0	30413	4732	1
0	30424	4733	1
0	30436	4734	1
0	30484	4743	1
0	30579	4758	1
0	30616	4764	1
0	30664	4771	1
0	30689	4774	1
0	30713	4778	1
0	30720	4779	1
0	30740	4784	1
0	30837	4803	1
0	30848	4804	2
0	30892	4810	1
0	30908	4813	1
0	30935	4817	1
0	30976	4822	6
0	30986	4823	5
0	30997	4824	5
0	31006	4825	6
0	31017	4826	6
0	31027	4827	6
0	31038	4828	5
0	31052	4829	1
0	31064	4830	1
0	31079	4831	1
0	31117	4836	2
0	31161	4842	1
0	31186	4846	1
0	31247	4859	1
0	31306	4869	1
0	31333	4873	1
0	31351	4875	1
0	31394	4881	1
0	31437	4889	1
0	31479	4896	1
0	31516	4901	5
0	31526	4902	3
0	31567	4908	1
0	31599	4912	1
0	31610	4913	1
0	31621	4914	1
0	31646	4918	1
0	31664	4924	1
0	31670	4925	2
0	31716	4933	1
0	31767	4943	1
0	31788	4947	1
0	31813	4951	1
0	31822	4953	1
0	31842	4958	1
0	31853	4960	1
0	31912	4968	1
0	31922	4970	1
0	31928	4971	2
0	31939	4974	1
0	31972	4979	2
0	32026	4988	1
0	32037	4989	1
0	32070	4994	1
0	32077	4995	1
0	32085	4996	1
0	32094	4997	2
1	2584	402	1
1	2584	402	0
1	2602	404	1
1	2602	404	0
1	2655	411	1
1	2655	411	0
1	2696	419	1
1	2696	419	0
1	2771	434	1
1	2771	434	0
1	2853	453	1
1	2853	453	0
1	2878	456	1
1	2878	456	0
1	2885	457	1
1	2887	457	0
1	2936	465	1
1	2936	465	0
1	2937	465	1
1	2945	466	0
1	2973	471	1
1	2973	471	0
1	2993	473	1
1	2993	473	0
1	3002	474	1
1	3006	474	0
1	3022	476	1
1	3030	477	2
1	3045	479	1
1	3058	480	0
1	3067	481	1
1	3070	481	0
1	3095	484	1
1	3095	484	0
1	3096	484	1
1	3106	485	0
1	3135	489	1
1	3135	489	0
1	3153	493	1
1	3153	493	0
1	3294	516	1
1	3294	516	0
1	3328	520	1
1	3328	520	0
1	3357	523	1
1	3357	523	0
1	3366	524	1
1	3395	528	0
1	3459	537	1
1	3459	537	0
1	3498	542	1
1	3498	542	0
1	3542	548	1
1	3542	548	0
1	3592	554	1
1	3592	554	0
1	3593	554	1
1	3604	555	0
1	3613	556	1
1	3615	556	0
1	3648	560	1
1	3648	560	0
1	3679	564	1
1	3679	564	0
1	3735	570	1
1	3735	570	0
1	3760	573	1
1	3768	574	2
1	3782	575	1
1	3792	576	0
1	3809	578	1
1	3809	578	0
1	3872	587	1
1	3872	587	0
1	3881	588	1
1	3883	588	0
1	3900	590	1
1	3900	590	0
1	3909	591	1
1	3911	591	0
1	3948	596	1
1	3948	596	0
1	3966	598	1
1	3966	598	0
1	3976	599	1
1	3979	599	0
1	3999	602	1
1	4012	604	0
1	4013	604	1
1	4024	605	0
1	4041	607	1
1	4041	607	0
1	4058	609	1
1	4058	609	0
1	4128	624	1
1	4128	624	0
1	4196	633	1
1	4196	633	0
1	4219	637	1
1	4219	637	0
1	4254	641	1
1	4254	641	0
1	4255	641	1
1	4264	642	2
1	4266	642	1
1	4276	643	0
1	4305	648	1
1	4305	648	0
1	4317	649	1
1	4319	649	0
1	4328	650	1
1	4330	650	0
1	4361	654	1
1	4361	654	0
1	4393	658	1
1	4393	658	0
1	4418	661	1
1	4418	661	0
1	4434	663	1
1	4434	663	0
1	4457	667	1
1	4457	667	0
1	4462	668	1
1	4463	668	2
1	4465	668	1
1	4473	669	0
1	4528	677	1
1	4528	677	0
1	4529	677	1
1	4539	678	0
1	4557	680	1
1	4557	680	0
1	4558	680	1
1	4566	681	0
1	4613	688	1
1	4613	688	0
1	4662	695	1
1	4662	695	0
1	4765	718	1
1	4765	718	0
1	4793	727	1
1	4793	727	0
1	4808	729	1
1	4808	729	0
1	4828	731	1
1	4828	731	0
1	4844	733	1
1	4845	733	2
1	4867	736	1
1	4868	736	2
1	4879	737	1
1	4888	738	2
1	4891	738	1
1	4901	739	0
1	4908	740	1
1	4910	740	0
1	4992	752	1
1	4992	752	0
1	5033	758	1
1	5033	758	0
1	5139	780	1
1	5139	780	0
1	5182	792	1
1	5182	792	0
1	5198	795	1
1	5198	795	0
1	5208	796	1
1	5221	800	0
1	5257	808	1
1	5257	808	0
1	5262	809	1
1	5267	809	0
1	5285	811	1
1	5285	811	0
1	5331	820	1
1	5331	820	0
1	5340	822	1
1	5340	822	0
1	5385	828	1
1	5385	828	0
1	5403	831	1
1	5403	831	0
1	5466	841	1
1	5466	841	0
1	5485	843	1
1	5485	843	0
1	5508	848	1
1	5508	848	0
1	5548	854	1
1	5548	854	0
1	5559	856	1
1	5559	856	0
1	5587	860	1
1	5587	860	0
1	5629	867	1
1	5629	867	0
1	5646	872	1
1	5646	872	0
1	5658	874	1
1	5658	874	0
1	5724	888	1
1	5724	888	0
1	5749	891	1
1	5749	891	0
1	5770	894	1
1	5770	894	0
1	5786	896	1
1	5796	899	0
1	5808	901	1
1	5808	901	0
1	5883	915	1
1	5883	915	0
1	5900	917	1
1	5900	917	0
1	5929	921	1
1	5929	921	0
1	6037	939	1
1	6037	939	0
1	6063	942	1
1	6063	942	0
1	6148	955	1
1	6148	955	0
1	6207	968	1
1	6207	968	0
1	6323	989	1
1	6323	989	0
1	6341	991	1
1	6355	993	2
1	6364	994	1
1	6376	995	2
1	6378	995	1
1	6388	996	0
1	6397	997	1
1	6399	997	0
1	6429	1001	1
1	6429	1001	0
1	6500	1010	1
1	6500	1010	0
1	6512	1011	1
1	6514	1011	0
1	6532	1013	1
1	6532	1013	0
1	6533	1013	1
1	6544	1014	0
1	6577	1019	1
1	6577	1019	0
1	6649	1035	1
1	6649	1035	0
1	6668	1037	1
1	6668	1037	0
1	6690	1040	1
1	6690	1040	0
1	6695	1041	1
1	6697	1041	0
1	6726	1048	1
1	6726	1048	0
1	6769	1055	1
1	6769	1055	0
1	6836	1064	1
1	6836	1064	0
1	6856	1068	1
1	6856	1068	0
1	6874	1070	1
1	6874	1070	0
1	6924	1076	1
1	6924	1076	0
1	6934	1077	1
1	6942	1078	2
1	6966	1081	1
1	6979	1082	0
1	6996	1084	1
1	6996	1084	0
1	7020	1087	1
1	7020	1087	0
1	7029	1088	1
1	7031	1088	0
1	7062	1093	1
1	7062	1093	0
1	7112	1103	1
1	7112	1103	0
1	7113	1103	1
1	7125	1104	0
1	7210	1117	1
1	7210	1117	0
1	7221	1120	1
1	7221	1120	0
1	7251	1127	1
1	7251	1127	0
1	7252	1127	1
1	7259	1128	0
1	7282	1131	1
1	7282	1131	0
1	7337	1141	1
1	7337	1141	0
1	7400	1154	1
1	7400	1154	0
1	7439	1161	1
1	7439	1161	0
1	7451	1163	1
1	7451	1163	0
1	7502	1171	1
1	7502	1171	0
1	7568	1184	1
1	7568	1184	0
1	7595	1189	1
1	7595	1189	0
1	7637	1197	1
1	7637	1197	0
1	7678	1205	1
1	7678	1205	0
1	7818	1230	1
1	7818	1230	0
1	7842	1233	1
1	7842	1233	0
1	7843	1233	1
1	7854	1234	0
1	7871	1239	1
1	7871	1239	0
1	7914	1251	1
1	7914	1251	0
1	7923	1252	1
1	7925	1252	0
1	7985	1267	1
1	7985	1267	0
1	7986	1267	1
1	7997	1268	0
1	8013	1271	1
1	8028	1273	0
1	8029	1273	1
1	8038	1274	0
1	8045	1275	1
1	8050	1275	0
1	8088	1287	1
1	8088	1287	0
1	8104	1291	1
1	8104	1291	0
1	8139	1296	1
1	8139	1296	0
1	8163	1302	1
1	8163	1302	0
1	8198	1312	1
1	8198	1312	0
1	8207	1313	1
1	8209	1313	0
1	8218	1314	1
1	8219	1314	2
1	8222	1314	1
1	8239	1316	2
1	8255	1318	3
1	8263	1319	2
1	8274	1320	1
1	8281	1321	2
1	8283	1321	1
1	8289	1322	0
1	8325	1329	1
1	8325	1329	0
1	8429	1345	1
1	8429	1345	0
1	8447	1347	1
1	8447	1347	0
1	8464	1349	1
1	8464	1349	0
1	8503	1354	1
1	8503	1354	0
1	8504	1354	1
1	8505	1354	2
1	8521	1355	1
1	8530	1356	2
1	8538	1357	3
1	8545	1358	4
1	8552	1359	5
1	8560	1360	4
1	8572	1361	3
1	8583	1362	2
1	8595	1363	1
1	8605	1364	0
1	8622	1366	1
1	8622	1366	0
1	8623	1366	1
1	8633	1367	0
1	8648	1371	1
1	8648	1371	0
1	8693	1381	1
1	8693	1381	0
1	8698	1382	1
1	8701	1382	0
1	8708	1383	1
1	8709	1383	2
1	8715	1384	3
1	8718	1385	4
1	8721	1386	5
1	8722	1386	6
1	8726	1387	5
1	8732	1388	4
1	8738	1389	3
1	8744	1390	2
1	8753	1391	1
1	8760	1392	2
1	8765	1392	1
1	8775	1393	0
1	8823	1399	1
1	8823	1399	0
1	8849	1402	1
1	8849	1402	0
1	8901	1409	1
1	8901	1409	0
1	8983	1420	1
1	8983	1420	0
1	9009	1423	1
1	9009	1423	0
1	9029	1425	1
1	9029	1425	0
1	9049	1427	1
1	9049	1427	0
1	9058	1428	1
1	9060	1428	0
1	9121	1437	1
1	9121	1437	0
1	9122	1437	1
1	9133	1438	2
1	9136	1438	1
1	9150	1439	0
1	9219	1449	1
1	9219	1449	0
1	9226	1450	1
1	9228	1450	0
1	9263	1457	1
1	9263	1457	0
1	9297	1461	1
1	9297	1461	0
1	9328	1467	1
1	9328	1467	0
1	9333	1468	1
1	9335	1468	0
1	9351	1471	1
1	9351	1471	0
1	9364	1475	1
1	9364	1475	0
1	9382	1479	1
1	9382	1479	0
1	9393	1482	1
1	9393	1482	0
1	9405	1484	1
1	9405	1484	0
1	9509	1501	1
1	9509	1501	0
1	9533	1504	1
1	9541	1505	2
1	9549	1506	1
1	9559	1507	0
1	9580	1510	1
1	9580	1510	0
1	9625	1520	1
1	9625	1520	0
1	9688	1530	1
1	9688	1530	0
1	9689	1530	1
1	9700	1531	2
1	9701	1531	3
1	9703	1531	2
1	9714	1532	1
1	9725	1533	0
1	9742	1536	1
1	9742	1536	0
1	9764	1542	1
1	9764	1542	0
1	9782	1545	1
1	9790	1547	0
1	9839	1553	1
1	9839	1553	0
1	9922	1564	1
1	9922	1564	0
1	9961	1569	1
1	9961	1569	0
1	9979	1571	1
1	9979	1571	0
1	9988	1572	1
1	9992	1572	0
1	10023	1576	1
1	10023	1576	0
1	10074	1583	1
1	10074	1583	0
1	10075	1583	1
1	10085	1584	2
1	10088	1584	1
1	10098	1585	0
1	10107	1586	1
1	10132	1590	0
1	10158	1594	1
1	10158	1594	0
1	10174	1597	1
1	10174	1597	0
1	10185	1598	1
1	10187	1598	0
1	10280	1611	1
1	10280	1611	0
1	10320	1616	1
1	10320	1616	0
1	10330	1617	1
1	10333	1617	0
1	10427	1630	1
1	10427	1630	0
1	10428	1630	1
1	10438	1631	0
1	10476	1637	1
1	10476	1637	0
1	10495	1639	1
1	10496	1639	2
1	10519	1642	1
1	10529	1643	0
1	10538	1644	1
1	10540	1644	0
1	10558	1646	1
1	10558	1646	0
1	10569	1647	1
1	10571	1647	0
1	10627	1657	1
1	10627	1657	0
1	10659	1661	1
1	10659	1661	0
1	10660	1661	1
1	10670	1662	0
1	10694	1668	1
1	10694	1668	0
1	10709	1673	1
1	10709	1673	0
1	10726	1677	1
1	10730	1678	0
1	10762	1685	1
1	10762	1685	0
1	10769	1686	1
1	10770	1686	2
1	10773	1686	1
1	10783	1687	0
1	10820	1694	1
1	10820	1694	0
1	10857	1699	1
1	10857	1699	0
1	10870	1703	1
1	10870	1703	0
1	10884	1705	1
1	10884	1705	0
1	10885	1705	1
1	10893	1706	0
1	10900	1707	1
1	10904	1707	0
1	10986	1717	1
1	10986	1717	0
1	10995	1718	1
1	10997	1718	0
1	11035	1723	1
1	11035	1723	0
1	11073	1728	1
1	11073	1728	0
1	11112	1733	1
1	11112	1733	0
1	11133	1735	1
1	11133	1735	0
1	11177	1741	1
1	11177	1741	0
1	11230	1748	1
1	11230	1748	0
1	11239	1749	1
1	11241	1749	0
1	11263	1752	1
1	11263	1752	0
1	11287	1755	1
1	11298	1757	0
1	11299	1757	1
1	11309	1758	0
1	11327	1760	1
1	11327	1760	0
1	11372	1765	1
1	11372	1765	0
1	11520	1787	1
1	11520	1787	0
1	11528	1788	1
1	11532	1788	0
1	11549	1790	1
1	11549	1790	0
1	11581	1795	1
1	11581	1795	0
1	11648	1804	1
1	11648	1804	0
1	11760	1824	1
1	11760	1824	0
1	11826	1837	1
1	11826	1837	0
1	11866	1847	1
1	11866	1847	0
1	11867	1847	1
1	11873	1848	0
1	11959	1863	1
1	11959	1863	0
1	12060	1880	1
1	12060	1880	0
1	12067	1881	1
1	12069	1881	0
1	12168	1903	1
1	12168	1903	0
1	12191	1906	1
1	12191	1906	0
1	12233	1913	1
1	12233	1913	0
1	12307	1926	1
1	12307	1926	0
1	12337	1930	1
1	12348	1931	0
1	12358	1932	1
1	12360	1932	0
1	12401	1937	1
1	12401	1937	0
1	12402	1937	1
1	12403	1937	2
1	12414	1938	1
1	12424	1939	0
1	12504	1950	1
1	12504	1950	0
1	12539	1954	1
1	12539	1954	0
1	12562	1957	1
1	12562	1957	0
1	12572	1958	1
1	12574	1958	0
1	12705	1976	1
1	12705	1976	0
1	12750	1981	1
1	12750	1981	0
1	12824	1991	1
1	12824	1991	0
1	12868	1997	1
1	12868	1997	0
1	12886	1999	1
1	12886	1999	0
1	12904	2001	1
1	12904	2001	0
1	13004	2014	1
1	13004	2014	0
1	13024	2016	1
1	13024	2016	0
1	13048	2019	1
1	13048	2019	0
1	13106	2027	1
1	13106	2027	0
1	13151	2032	1
1	13151	2032	0
1	13181	2036	1
1	13190	2037	0
1	13191	2037	1
1	13202	2038	0
1	13232	2041	1
1	13232	2041	0
1	13266	2045	1
1	13266	2045	0
1	13338	2055	1
1	13338	2055	0
1	13424	2066	1
1	13424	2066	0
1	13442	2068	1
1	13442	2068	0
1	13496	2076	1
1	13496	2076	0
1	13538	2081	1
1	13538	2081	0
1	13577	2086	1
1	13577	2086	0
1	13607	2090	1
1	13613	2091	0
1	13631	2095	1
1	13631	2095	0
1	13643	2097	1
1	13643	2097	0
1	13650	2098	1
1	13652	2098	0
1	13657	2099	1
1	13661	2099	0
1	13668	2100	1
1	13669	2100	2
1	13670	2100	3
1	13674	2100	2
1	13685	2101	1
1	13696	2102	0
1	13735	2107	1
1	13735	2107	0
1	13744	2108	1
1	13749	2108	0
1	13765	2110	1
1	13783	2113	0
1	13797	2115	1
1	13797	2115	0
1	13812	2120	1
1	13812	2120	0
1	13838	2124	1
1	13838	2124	0
1	13839	2124	1
1	13847	2125	0
1	13864	2131	1
1	13864	2131	0
1	13873	2133	1
1	13873	2133	0
1	13878	2134	1
1	13879	2134	2
1	13881	2134	1
1	13887	2135	0
1	13892	2136	1
1	13894	2136	0
1	13909	2139	1
1	13925	2141	0
1	13964	2146	1
1	13964	2146	0
1	13983	2148	1
1	13983	2148	0
1	14019	2153	1
1	14019	2153	0
1	14065	2159	1
1	14065	2159	0
1	14088	2165	1
1	14088	2165	0
1	14174	2178	1
1	14174	2178	0
1	14191	2180	1
1	14191	2180	0
1	14217	2183	1
1	14217	2183	0
1	14228	2185	1
1	14228	2185	0
1	14229	2185	1
1	14234	2186	2
1	14242	2189	3
1	14246	2190	2
1	14251	2191	3
1	14254	2191	2
1	14264	2192	1
1	14270	2193	0
1	14373	2208	1
1	14373	2208	0
1	14469	2222	1
1	14469	2222	0
1	14478	2223	1
1	14481	2223	0
1	14582	2239	1
1	14582	2239	0
1	14594	2241	1
1	14594	2241	0
1	14613	2243	1
1	14613	2243	0
1	14650	2250	1
1	14650	2250	0
1	14711	2257	1
1	14711	2257	0
1	14775	2266	1
1	14775	2266	0
1	14848	2276	1
1	14848	2276	0
1	14849	2276	1
1	14860	2277	0
1	14913	2284	1
1	14913	2284	0
1	14934	2287	1
1	14934	2287	0
1	14953	2290	1
1	14953	2290	0
1	14986	2294	1
1	14986	2294	0
1	15038	2304	1
1	15038	2304	0
1	15055	2308	1
1	15062	2309	0
1	15112	2316	1
1	15112	2316	0
1	15113	2316	1
1	15123	2317	0
1	15162	2323	1
1	15162	2323	0
1	15167	2324	1
1	15169	2324	0
1	15182	2328	1
1	15182	2328	0
1	15187	2329	1
1	15189	2329	0
1	15242	2338	1
1	15242	2338	0
1	15292	2349	1
1	15292	2349	0
1	15293	2349	1
1	15305	2350	0
1	15314	2351	1
1	15346	2355	0
1	15355	2356	1
1	15356	2356	2
1	15359	2356	1
1	15369	2357	0
1	15376	2358	1
1	15379	2358	0
1	15399	2362	1
1	15399	2362	0
1	15414	2366	1
1	15414	2366	0
1	15439	2370	1
1	15439	2370	0
1	15457	2372	1
1	15457	2372	0
1	15483	2375	1
1	15483	2375	0
1	15537	2385	1
1	15537	2385	0
1	15581	2399	1
1	15581	2399	0
1	15586	2400	1
1	15588	2400	0
1	15624	2408	1
1	15624	2408	0
1	15651	2411	1
1	15651	2411	0
1	15698	2420	1
1	15698	2420	0
1	15711	2424	1
1	15711	2424	0
1	15712	2424	1
1	15717	2425	2
1	15720	2425	1
1	15730	2426	0
1	15764	2433	1
1	15764	2433	0
1	15773	2434	1
1	15777	2434	0
1	15866	2451	1
1	15866	2451	0
1	15886	2456	1
1	15886	2456	0
1	15919	2461	1
1	15919	2461	0
1	15974	2475	1
1	15974	2475	0
1	15985	2478	1
1	15985	2478	0
1	16032	2489	1
1	16032	2489	0
1	16079	2500	1
1	16079	2500	0
1	16103	2503	1
1	16103	2503	0
1	16113	2504	1
1	16115	2504	0
1	16128	2507	1
1	16128	2507	0
1	16129	2507	1
1	16164	2512	0
1	16165	2512	1
1	16166	2512	2
1	16177	2513	1
1	16186	2514	2
1	16188	2514	1
1	16198	2515	0
1	16205	2516	1
1	16209	2516	0
1	16259	2523	1
1	16259	2523	0
1	16293	2529	1
1	16293	2529	0
1	16307	2532	1
1	16307	2532	0
1	16331	2536	1
1	16331	2536	0
1	16374	2542	1
1	16374	2542	0
1	16390	2544	1
1	16405	2547	0
1	16437	2553	1
1	16437	2553	0
1	16460	2557	1
1	16460	2557	0
1	16465	2558	1
1	16469	2558	0
1	16484	2560	1
1	16484	2560	0
1	16505	2563	1
1	16505	2563	0
1	16533	2567	1
1	16533	2567	0
1	16658	2591	1
1	16658	2591	0
1	16659	2591	1
1	16665	2592	0
1	16670	2593	1
1	16672	2593	0
1	16683	2595	1
1	16692	2596	2
1	16713	2598	1
1	16714	2598	2
1	16727	2599	3
1	16730	2599	2
1	16740	2600	1
1	16752	2601	0
1	16769	2603	1
1	16769	2603	0
1	16770	2603	1
1	16782	2604	0
1	16791	2605	1
1	16793	2605	0
1	16843	2612	1
1	16843	2612	0
1	16844	2612	1
1	16855	2613	0
1	16864	2614	1
1	16867	2614	0
1	16889	2617	1
1	16890	2617	2
1	16900	2618	3
1	16908	2619	2
1	16918	2620	1
1	16928	2621	0
1	16964	2626	1
1	16964	2626	0
1	17003	2631	1
1	17003	2631	0
1	17022	2633	1
1	17022	2633	0
1	17064	2638	1
1	17064	2638	0
1	17096	2642	1
1	17096	2642	0
1	17097	2642	1
1	17107	2643	0
1	17114	2644	1
1	17116	2644	0
1	17131	2647	1
1	17137	2649	0
1	17138	2649	1
1	17147	2650	0
1	17216	2660	1
1	17216	2660	0
1	17239	2663	1
1	17239	2663	0
1	17240	2663	1
1	17241	2663	2
1	17251	2664	1
1	17259	2665	0
1	17295	2673	1
1	17295	2673	0
1	17333	2680	1
1	17333	2680	0
1	17358	2683	1
1	17358	2683	0
1	17527	2714	1
1	17527	2714	0
1	17543	2716	1
1	17561	2719	0
1	17572	2721	1
1	17572	2721	0
1	17590	2725	1
1	17590	2725	0
1	17606	2728	1
1	17606	2728	0
1	17637	2732	1
1	17637	2732	0
1	17638	2732	1
1	17647	2733	0
1	17680	2741	1
1	17680	2741	0
1	17690	2742	1
1	17692	2742	0
1	17717	2746	1
1	17717	2746	0
1	17819	2768	1
1	17819	2768	0
1	17829	2769	1
1	17847	2773	0
1	17895	2782	1
1	17895	2782	0
1	17914	2785	1
1	17914	2785	0
1	17986	2795	1
1	17986	2795	0
1	17987	2795	1
1	17997	2796	0
1	18021	2800	1
1	18021	2800	0
1	18107	2818	1
1	18107	2818	0
1	18135	2823	1
1	18135	2823	0
1	18178	2828	1
1	18178	2828	0
1	18203	2831	1
1	18203	2831	0
1	18242	2840	1
1	18242	2840	0
1	18253	2843	1
1	18253	2843	0
1	18262	2844	1
1	18265	2844	0
1	18274	2845	1
1	18277	2845	0
1	18315	2850	1
1	18315	2850	0
1	18361	2857	1
1	18361	2857	0
1	18384	2861	1
1	18384	2861	0
1	18402	2865	1
1	18402	2865	0
1	18546	2887	1
1	18546	2887	0
1	18572	2890	1
1	18572	2890	0
1	18584	2891	1
1	18615	2895	0
1	18646	2899	1
1	18646	2899	0
1	18709	2908	1
1	18709	2908	0
1	18774	2923	1
1	18774	2923	0
1	18802	2932	1
1	18802	2932	0
1	18811	2934	1
1	18811	2934	0
1	18816	2935	1
1	18820	2935	0
1	18861	2941	1