version 3
run Experimentos-805-20260508-20:06:17-31863
attr configname Experimentos
attr datetime 20260508-20:06:17
attr datetimef 20260508-200617
attr experiment Experimentos
attr inifile TwoQueues.ini
attr iterationvars "$p=0.7, $q=0.3, $Y=20, $m=2"
attr iterationvarsd p=0.7/q=0.3/Y=20/m=2
attr iterationvarsf p=0.7,q=0.3,Y=20,m=2-
attr measurement "$p=0.7, $q=0.3, $Y=20, $m=2"
attr network TwoQueues
attr processid 31863
attr repetition 5
attr replication #5
attr resultdir results
attr runnumber 805
attr seedset 805
itervar Y 20
itervar m 2
itervar p 0.7
itervar q 0.3
config description "Barrido completo de parámetros Proyecto 12"
config **.source1.p 0.7
config **.source1.q 0.2
config **.source2.p 0.6
config **.source2.q 0.3
config **.serverWithMaintenance.Y 20
config **.serverWithMaintenance.m 2
config network TwoQueues
config cpu-time-limit 5000s
config sim-time-limit 5000s
config warmup-period 400s
config repeat 20
config output-scalar-file results/Experimentos-p=0.7,q=0.3,Y=20,m=2--#5.sca
config output-vector-file results/Experimentos-p=0.7,q=0.3,Y=20,m=2--#5.vec
config **.vector-recording true

vector 0 TwoQueues.serverWithMaintenance residenceTime2:vector ETV
attr recordingmode vector
attr source delay2
attr title "Residence Time Class 2"
vector 1 TwoQueues.queue2 queueLengthStats:vector ETV
attr recordingmode vector
attr source qlen
attr title "Average Queue Length"
vector 2 TwoQueues.queue1 queueLengthStats:vector ETV
attr recordingmode vector
attr source qlen
attr title "Average Queue Length"
vector 3 TwoQueues.server residenceTime1:vector ETV
attr recordingmode vector
attr source delay1
attr title "Residence Time Class 1"
vector 4 TwoQueues.server throughputStats1:vector ETV
attr recordingmode vector
attr source throughput1
attr title "Throughput Class 1"
0	2232	400	1
0	2250	402	1
0	2261	403	1
0	2361	426	1
0	2373	428	1
0	2384	431	1
0	2392	432	1
0	2398	433	2
0	2442	442	1
0	2458	445	1
0	2475	447	1
0	2497	452	1
0	2507	453	1
0	2518	455	1
0	2529	458	1
0	2539	460	1
0	2545	461	2
0	2559	463	1
0	2570	466	1
0	2588	472	1
0	2594	473	2
0	2626	478	1
0	2641	481	1
0	2647	482	2
0	2703	496	1
0	2714	497	1
0	2735	501	1
0	2761	505	1
0	2780	508	2
0	2798	512	1
0	2821	515	1
0	2871	521	1
0	2881	522	2
0	2890	523	3
0	2899	525	1
0	2939	536	1
0	2955	538	1
0	2968	542	1
0	2986	546	1
0	3013	552	1
0	3043	556	1
0	3059	560	1
0	3083	567	1
0	3090	568	1
0	3105	573	1
0	3121	576	1
0	3140	579	1
0	3151	580	1
0	3173	583	1
0	3200	590	1
0	3235	599	1
0	3244	600	2
0	3253	601	3
0	3262	602	2
0	3288	605	1
0	3297	606	2
0	3319	613	1
0	3345	616	1
0	3358	617	1
0	3386	620	1
0	3396	621	2
0	3414	623	1
0	3445	627	1
0	3451	628	2
0	3458	629	1
0	3469	631	1
0	3488	636	1
0	3495	637	2
0	3516	640	4
0	3535	647	1
0	3544	649	1
0	3567	654	1
0	3590	657	1
0	3606	659	1
0	3634	664	1
0	3657	668	1
0	3688	676	1
0	3706	679	1
0	3779	694	1
0	3793	698	1
0	3799	699	2
0	3816	701	1
0	3832	703	1
0	3839	704	1
0	3846	705	1
0	3853	706	1
0	3871	709	1
0	3877	710	2
0	3899	713	5
0	3910	714	2
0	3921	715	2
0	3932	716	2
0	3943	717	1
0	3953	718	1
0	3961	719	1
0	3968	720	2
0	3974	721	2
0	3984	722	1
0	4014	726	1
0	4024	728	1
0	4031	729	2
0	4038	730	2
0	4048	731	2
0	4060	732	1
0	4072	733	1
0	4083	734	1
0	4096	737	1
0	4106	738	1
0	4129	741	3
0	4140	742	2
0	4158	745	1
0	4165	746	1
0	4172	747	1
0	4196	751	1
0	4206	752	2
0	4217	753	3
0	4227	754	4
0	4234	755	2
0	4240	756	2
0	4254	758	1
0	4317	772	1
0	4333	775	1
0	4395	790	1
0	4407	792	1
0	4437	797	1
0	4448	798	1
0	4467	802	1
0	4483	804	1
0	4517	808	1
0	4535	813	1
0	4558	817	1
0	4580	825	1
0	4586	826	2
0	4634	839	1
0	4644	840	1
0	4653	842	1
0	4664	845	1
0	4673	847	1
0	4701	856	1
0	4760	873	1
0	4791	881	1
0	4807	883	1
0	4819	884	1
0	4860	893	1
0	4870	895	1
0	4876	896	2
0	4891	898	1
0	4897	899	2
0	4933	903	1
0	4944	904	2
0	4954	905	3
0	4978	909	1
0	4986	910	1
0	4996	911	2
0	5005	912	2
0	5012	913	2
0	5023	914	2
0	5040	916	1
0	5063	919	1
0	5082	925	1
0	5094	926	1
0	5123	930	1
0	5134	931	2
0	5164	936	1
0	5190	942	1
0	5197	943	2
0	5203	944	2
0	5218	948	1
0	5238	951	3
0	5250	953	1
0	5259	954	2
0	5293	961	1
0	5304	964	1
0	5328	971	1
0	5335	972	1
0	5347	974	1
0	5390	981	1
0	5402	983	1
0	5418	987	1
0	5427	988	2
0	5434	989	1
0	5463	997	1
0	5473	998	2
0	5480	999	2
0	5487	1000	2
0	5494	1001	2
0	5504	1002	2
0	5512	1003	2
0	5533	1008	1
0	5540	1009	1
0	5584	1023	1
0	5590	1024	2
0	5600	1025	1
0	5630	1032	1
0	5661	1037	1
0	5675	1041	1
0	5684	1042	2
0	5696	1043	1
0	5716	1046	1
0	5734	1051	1
0	5759	1054	1
0	5786	1058	1
0	5798	1059	1
0	5820	1064	1
0	5872	1075	1
0	5882	1076	1
0	5891	1077	1
0	5902	1078	1
0	5925	1081	3
0	5960	1086	1
0	5993	1095	1
0	6019	1099	1
0	6038	1102	1
0	6047	1103	2
0	6056	1104	1
0	6066	1106	1
0	6077	1107	2
0	6088	1108	1
0	6100	1109	1
0	6127	1114	1
0	6136	1115	2
0	6145	1116	1
0	6157	1117	1
0	6168	1118	2
0	6176	1119	3
0	6183	1120	1
0	6190	1121	1
0	6218	1126	1
0	6254	1132	1
0	6260	1133	2
0	6292	1141	1
0	6302	1142	2
0	6310	1143	2
0	6331	1147	1
0	6345	1148	2
0	6356	1149	2
0	6367	1150	2
0	6402	1155	1
0	6425	1158	1
0	6433	1159	1
0	6442	1160	2
0	6451	1161	1
0	6467	1164	1
0	6474	1165	1
0	6485	1168	1
0	6499	1170	1
0	6517	1172	1
0	6557	1178	1
0	6574	1181	3
0	6598	1185	1
0	6632	1191	1
0	6655	1194	1
0	6667	1196	1
0	6674	1197	1
0	6681	1198	1
0	6691	1199	1
0	6702	1201	1
0	6721	1204	1
0	6732	1205	2
0	6744	1207	1
0	6753	1209	1
0	6773	1214	1
0	6789	1217	1
0	6806	1223	1
0	6834	1228	1
0	6843	1229	2
0	6852	1231	1
0	6863	1234	1
0	6875	1237	2
0	6882	1238	1
0	6894	1240	1
0	6923	1245	1
0	6933	1246	1
0	7006	1263	1
0	7016	1264	2
0	7030	1266	1
0	7049	1269	1
0	7066	1271	1
0	7086	1274	1
0	7097	1275	1
0	7103	1276	2
0	7116	1280	1
0	7130	1282	1
0	7241	1313	1
0	7302	1324	1
0	7315	1325	1
0	7326	1326	2
0	7337	1327	1
0	7352	1330	1
0	7359	1331	1
0	7395	1339	1
0	7409	1341	1
0	7434	1344	1
0	7445	1345	1
0	7471	1349	1
0	7477	1350	2
0	7566	1368	1
0	7575	1369	2
0	7631	1382	1
0	7653	1385	1
0	7679	1388	1
0	7767	1400	1
0	7778	1401	1
0	7809	1405	1
0	7833	1409	1
0	7846	1410	2
0	7857	1411	2
0	7867	1412	2
0	7885	1415	4
0	7897	1417	1
0	7933	1425	1
0	7945	1427	1
0	7974	1433	1
0	7995	1437	1
0	8004	1438	2
0	8011	1439	1
0	8027	1442	1
0	8043	1445	1
0	8059	1447	1
0	8070	1448	1
0	8076	1449	2
0	8093	1451	1
0	8102	1452	2
0	8109	1453	1
0	8117	1454	1
0	8124	1455	2
0	8134	1456	2
0	8145	1457	2
0	8159	1460	3
0	8173	1462	1
0	8180	1463	1
0	8202	1468	1
0	8220	1473	1
0	8235	1475	1
0	8244	1476	2
0	8257	1477	1
0	8270	1478	1
0	8302	1482	1
0	8334	1486	1
0	8343	1487	2
0	8361	1489	1
0	8371	1490	2
0	8385	1491	1
0	8409	1494	1
0	8428	1497	1
0	8436	1498	1
0	8442	1499	2
0	8451	1501	1
0	8469	1505	1
0	8487	1507	1
0	8498	1508	2
0	8521	1513	1
0	8541	1516	1
0	8551	1517	2
0	8563	1519	1
0	8571	1520	1
0	8582	1521	2
0	8603	1524	1
0	8614	1527	1
0	8629	1532	1
0	8645	1537	1
0	8655	1538	2
0	8672	1541	1
0	8688	1544	1
0	8714	1547	1
0	8724	1548	2
0	8735	1549	1
0	8750	1552	1
0	8764	1555	4
0	8773	1556	4
0	8799	1564	1
0	8817	1568	1
0	8846	1574	1
0	8865	1577	1
0	8883	1581	1
0	8910	1587	1
0	8931	1589	1
0	8976	1595	1
0	9074	1610	1
0	9096	1615	1
0	9103	1616	1
0	9113	1618	1
0	9119	1619	2
0	9153	1626	1
0	9178	1635	1
0	9227	1642	1
0	9240	1643	1
0	9263	1647	1
0	9291	1650	2
0	9347	1664	1
0	9357	1665	1
0	9424	1680	1
0	9444	1683	1
0	9455	1684	2
0	9527	1696	1
0	9543	1698	1
0	9556	1702	1
0	9587	1706	1
0	9596	1707	2
0	9606	1708	1
0	9633	1713	1
0	9640	1714	1
0	9663	1717	1
0	9673	1718	1
0	9680	1719	1
0	9687	1720	1
0	9694	1721	1
0	9705	1724	1
0	9758	1734	1
0	9784	1738	1
0	9791	1739	1
0	9798	1740	1
0	9848	1752	1
0	9855	1753	2
0	9864	1754	2
0	9873	1755	1
0	9880	1756	1
0	9914	1763	1
0	9925	1766	1
0	9932	1767	1
0	9944	1768	1
0	9984	1774	1
0	9993	1775	2
0	10007	1778	1
0	10018	1779	2
0	10035	1781	1
0	10068	1790	1
0	10094	1793	1
0	10123	1796	2
0	10135	1797	2
0	10146	1798	3
0	10156	1799	4
0	10167	1800	1
0	10196	1806	1
0	10207	1809	1
0	10235	1814	1
0	10244	1815	2
0	10253	1817	1
0	10282	1823	1
0	10292	1824	1
0	10311	1830	1
0	10326	1833	1
0	10337	1834	2
0	10348	1835	1
0	10370	1838	1
0	10403	1843	1
0	10412	1844	2
0	10423	1847	1
0	10449	1850	3
0	10460	1851	3
0	10471	1852	3
0	10493	1858	1
0	10541	1867	1
0	10576	1871	1
0	10594	1873	1
0	10612	1876	1
0	10621	1878	1
0	10639	1882	1
0	10648	1884	1
0	10659	1887	1
0	10666	1888	1
0	10705	1896	1
0	10725	1898	1
0	10744	1900	1
0	10761	1902	1
0	10775	1905	1
0	10782	1906	1
0	10792	1908	1
0	10803	1911	4
0	10823	1916	1
0	10853	1926	1
0	10860	1927	1
0	10890	1933	1
0	10906	1935	1
0	10934	1939	1
0	10945	1940	1
0	10954	1941	2
0	10960	1942	2
0	10972	1944	1
0	10981	1945	2
0	11006	1951	1
0	11015	1952	2
0	11034	1959	1
0	11041	1960	1
0	11078	1966	1
0	11163	1982	1
0	11188	1985	1
0	11207	1987	1
0	11231	1991	1
0	11271	2002	1
0	11282	2005	1
0	11374	2022	1
0	11400	2025	1
0	11412	2026	1
0	11421	2027	2
0	11442	2031	1
0	11453	2032	1
0	11475	2038	1
0	11485	2039	1
0	11503	2042	1
0	11517	2044	1
0	11533	2048	1
0	11570	2055	1
0	11579	2056	2
0	11594	2061	1
0	11604	2062	1
0	11628	2068	1
0	11644	2071	1
0	11673	2080	1
0	11693	2085	1
0	11714	2088	1
0	11726	2090	1
0	11735	2091	2
0	11742	2092	1
0	11755	2096	1
0	11762	2097	1
0	11779	2099	1
0	11789	2100	2
0	11798	2101	2
0	11808	2102	1
0	11817	2103	2
0	11849	2107	1
0	11866	2109	1
0	11876	2111	1
0	11882	2112	2
0	11889	2113	1
0	11896	2114	1
0	11948	2128	1
0	12023	2147	1
0	12044	2151	1
0	12060	2153	1
0	12079	2155	1
0	12091	2156	2
0	12109	2158	1
0	12148	2163	1
0	12189	2170	1
0	12198	2172	1
0	12219	2176	1
0	12244	2180	1
0	12268	2183	1
0	12291	2188	1
0	12298	2189	2
0	12304	2190	2
0	12327	2199	1
0	12343	2202	1
0	12356	2206	1
0	12371	2207	1
0	12382	2208	1
0	12425	2215	1
0	12454	2222	1
0	12476	2225	1
0	12483	2226	2
0	12489	2227	2
0	12507	2231	1
0	12518	2234	1
0	12533	2239	1
0	12559	2246	1
0	12569	2247	1
0	12576	2248	1
0	12586	2249	1
0	12606	2253	1
0	12617	2255	1
0	12627	2256	1
0	12637	2257	1
0	12679	2267	1
0	12686	2268	1
0	12712	2274	1
0	12724	2275	2
0	12742	2278	4
0	12749	2279	5
0	12756	2280	5
0	12767	2281	5
0	12778	2282	6
0	12789	2283	6
0	12801	2284	6
0	12811	2285	6
0	12821	2286	4
0	12844	2289	1
0	12855	2290	1
0	12866	2291	2
0	12921	2300	1
0	12943	2303	1
0	12974	2307	1
0	12987	2308	1
0	12997	2309	2
0	13050	2322	1
0	13087	2332	1
0	13112	2338	1
0	13150	2348	1
0	13161	2349	1
0	13167	2350	2
0	13183	2353	1
0	13207	2356	1
0	13249	2362	1
0	13262	2363	1
0	13274	2364	2
0	13285	2365	1
0	13311	2371	1
0	13431	2390	1
0	13442	2391	1
0	13462	2395	1
0	13486	2398	1
0	13526	2403	1
0	13537	2404	2
0	13555	2409	1
0	13571	2412	1
0	13579	2413	1
0	13585	2414	2
0	13632	2428	1
0	13641	2429	2
0	13687	2437	1
0	13725	2446	1
0	13732	2447	1
0	13748	2451	1
0	13780	2455	1
0	13813	2460	1
0	13824	2463	1
0	13850	2467	1
0	13875	2471	1
0	13894	2474	1
0	13910	2476	1
0	13937	2482	1
0	13944	2483	1
0	13961	2485	1
0	13984	2488	1
0	13995	2489	2
0	14005	2490	3
0	14011	2491	3
0	14027	2494	5
0	14096	2510	1
0	14107	2511	1
0	14113	2512	2
0	14143	2517	1
0	14150	2518	1
0	14172	2524	1
0	14184	2526	1
0	14230	2538	1
0	14244	2540	1
0	14260	2542	1
0	14299	2550	1
0	14308	2552	1
0	14319	2553	1
0	14330	2554	1
0	14344	2555	1
0	14355	2556	1
0	14383	2560	1
0	14401	2562	1
0	14430	2566	1
0	14462	2570	1
0	14500	2581	1
0	14538	2588	1
0	14550	2590	1
0	14570	2592	1
0	14580	2593	2
0	14611	2597	1
0	14677	2611	1
0	14688	2614	1
0	14701	2617	1
0	14725	2620	1
0	14732	2621	1
0	14743	2624	1
0	14758	2626	1
0	14776	2628	1
0	14793	2630	1
0	14805	2631	1
0	14854	2639	1
0	14863	2640	2
0	14874	2642	1
0	14900	2645	3
0	14909	2646	4
0	14916	2647	4
0	14922	2648	2
0	14988	2663	1
0	14997	2664	2
0	15015	2666	1
0	15055	2673	1
0	15080	2677	1
0	15088	2678	1
0	15094	2679	2
0	15113	2682	1
0	15125	2683	1
0	15150	2686	1
0	15162	2687	1
0	15168	2688	2
0	15174	2689	3
0	15199	2693	1
0	15209	2694	1
0	15220	2697	1
0	15241	2700	3
0	15253	2701	1
0	15264	2702	1
0	15280	2704	1
0	15290	2706	1
0	15296	2707	2
0	15305	2709	1
0	15312	2710	1
0	15338	2717	1
0	15352	2719	1
0	15391	2726	1
0	15410	2728	1
0	15429	2732	1
0	15438	2733	2
0	15458	2737	1
0	15476	2742	1
0	15486	2743	1
0	15499	2746	1
0	15519	2751	1
0	15534	2755	1
0	15577	2764	1
0	15611	2769	1
0	15656	2779	1
0	15699	2793	1
0	15709	2794	1
0	15718	2795	1
0	15746	2804	1
0	15757	2807	1
0	15779	2813	1
0	15807	2818	1
0	15849	2824	1
0	15937	2838	1
0	15967	2842	1
0	15979	2843	2
0	15996	2845	1
0	16013	2847	1
0	16019	2848	2
0	16038	2851	1
0	16065	2856	1
0	16108	2862	1
0	16164	2869	1
0	16181	2871	1
0	16204	2874	1
0	16222	2879	1
0	16229	2880	1
0	16262	2889	1
0	16273	2891	1
0	16306	2898	1
0	16312	2899	2
0	16328	2902	1
0	16349	2910	1
0	16395	2916	1
0	16406	2917	1
0	16500	2932	1
0	16523	2937	1
0	16538	2942	1
0	16547	2944	1
0	16570	2947	1
0	16579	2948	2
0	16590	2949	3
0	16611	2953	1
0	16618	2954	1
0	16634	2958	1
0	16653	2960	1
0	16666	2961	1
0	16677	2962	1
0	16688	2963	1
0	16718	2969	1
0	16754	2975	1
0	16771	2976	1
0	16788	2978	1
0	16851	2988	1
0	16878	2994	1
0	16908	2998	1
0	16918	2999	1
0	16938	3004	1
0	16957	3007	1
0	16983	3010	1
0	16992	3011	2
0	17002	3013	1
0	17023	3016	4
0	17034	3017	4
0	17043	3018	5
0	17049	3019	3
0	17059	3020	1
0	17074	3023	1
0	17086	3024	1
0	17096	3025	1
0	17119	3029	1
0	17128	3031	1
0	17144	3034	1
0	17158	3036	1
0	17165	3037	1
0	17175	3038	1
0	17190	3042	1
0	17216	3050	1
0	17223	3051	1
0	17236	3054	1
0	17252	3058	1
0	17263	3061	1
0	17321	3070	1
0	17361	3079	1
0	17368	3080	2
0	17374	3081	2
0	17381	3082	1
0	17451	3092	1
0	17458	3093	1
0	17467	3095	1
0	17474	3096	1
0	17490	3099	1
0	17499	3101	1
0	17508	3103	1
0	17525	3108	1
0	17545	3110	1
0	17554	3111	2
0	17561	3112	1
0	17570	3114	1
0	17605	3123	1
0	17615	3124	1
0	17629	3127	1
0	17665	3131	1
0	17704	3137	1
0	17721	3139	1
0	17737	3142	1
0	17807	3152	1
0	17814	3153	1
0	17821	3154	1
0	17828	3155	1
0	17871	3162	1
0	17883	3163	1
0	17920	3169	1
0	17932	3170	1
0	17982	3177	1
0	17998	3180	1
0	18005	3181	1
0	18016	3184	1
0	18039	3188	1
0	18048	3190	1
0	18065	3193	1
0	18071	3194	2
0	18084	3197	3
0	18090	3198	2
0	18103	3202	1
0	18110	3203	1
0	18134	3210	1
0	18164	3215	1
0	18171	3216	1
0	18183	3217	1
0	18215	3221	1
0	18225	3222	2
0	18241	3225	1
0	18247	3226	2
0	18253	3227	3
0	18267	3231	1
0	18275	3232	2
0	18284	3233	2
0	18292	3234	3
0	18299	3235	1
0	18330	3240	1
0	18336	3241	2
0	18349	3244	3
0	18355	3245	4
0	18371	3248	1
0	18381	3249	2
0	18413	3254	1
0	18427	3258	1
0	18433	3259	2
0	18444	3262	1
0	18456	3263	1
0	18508	3275	1
0	18520	3276	1
0	18529	3277	2
0	18556	3283	1
0	18578	3288	1
0	18588	3289	1
0	18597	3291	1
0	18613	3293	1
0	18647	3303	1
0	18653	3304	2
0	18676	3308	1
0	18701	3311	2
0	18720	3313	1
0	18747	3318	1
0	18755	3319	1
0	18761	3320	2
0	18792	3328	1
0	18811	3335	1
0	18837	3342	1
0	18851	3344	1
0	18877	3347	1
0	18887	3348	1
0	18916	3354	1
0	18956	3360	1
0	18974	3364	1
0	18989	3369	1
0	19004	3373	1
0	19032	3378	1
0	19040	3379	1
0	19046	3380	2
0	19061	3382	1
0	19075	3385	4
0	19087	3386	3
0	19112	3390	1
0	19123	3392	1
0	19133	3393	1
0	19145	3395	1
0	19165	3397	1
0	19176	3398	2
0	19187	3399	2
0	19204	3401	1
0	19230	3405	1
0	19241	3406	2
0	19289	3416	1
0	19300	3417	1
0	19311	3418	1
0	19327	3420	1
0	19342	3424	1
0	19359	3427	1
0	19370	3428	1
0	19386	3432	1
0	19405	3435	3
0	19411	3436	3
0	19420	3437	4
0	19435	3440	1
0	19445	3441	1
0	19457	3444	1
0	19463	3445	2
0	19474	3448	1
0	19487	3452	1
0	19502	3456	1
0	19528	3460	1
0	19555	3471	1
0	19599	3482	1
0	19612	3484	1
0	19618	3485	2
0	19627	3487	1
0	19634	3488	1
0	19641	3489	1
0	19674	3494	1
0	19685	3495	1
0	19735	3503	1
0	19745	3504	2
0	19771	3507	1
0	19782	3508	1
0	19792	3509	1
0	19824	3515	1
0	19835	3516	2
0	19844	3517	3
0	19851	3518	3
0	19861	3519	2
0	19873	3520	2
0	19884	3521	2
0	19897	3523	1
0	19922	3527	1
0	19939	3529	1
0	19958	3532	1
0	19969	3535	1
0	19976	3536	1
0	19983	3537	1
0	19990	3538	1
0	20006	3543	1
0	20028	3547	1
0	20045	3549	1
0	20059	3550	1
0	20069	3551	2
0	20105	3559	1
0	20117	3561	1
0	20128	3563	1
0	20139	3564	1
0	20150	3565	2
0	20160	3566	2
0	20171	3568	1
0	20195	3575	1
0	20227	3584	1
0	20237	3585	2
0	20261	3588	1
0	20271	3589	2
0	20289	3592	1
0	20306	3594	1
0	20326	3598	1
0	20348	3601	1
0	20358	3602	1
0	20369	3604	1
0	20386	3608	1
0	20397	3609	2
0	20409	3610	1
0	20418	3611	2
0	20428	3612	1
0	20476	3620	1
0	20486	3621	1
0	20498	3622	1
0	20511	3625	1
0	20524	3629	1
0	20545	3631	1
0	20555	3632	2
0	20566	3633	1
0	20605	3642	1
0	20617	3644	1
0	20637	3647	1
0	20649	3649	1
0	20664	3653	1
0	20670	3654	2
0	20681	3655	1
0	20700	3658	1
0	20711	3659	1
0	20720	3660	2
0	20744	3665	1
0	20754	3666	1
0	20769	3670	1
0	20802	3675	1
0	20816	3677	1
0	20825	3679	1
0	20841	3682	1
0	20875	3687	1
0	20886	3688	2
0	20896	3689	2
0	20904	3690	2
0	20915	3691	2
0	20926	3692	3
0	20936	3693	2
0	20958	3696	3
0	20967	3697	4
0	20983	3700	1
0	20996	3704	1
0	21005	3706	1
0	21050	3715	1
0	21090	3725	1
0	21100	3726	1
0	21111	3727	1
0	21124	3728	1
0	21135	3729	1
0	21150	3731	1
0	21164	3734	1
0	21198	3740	1
0	21207	3742	1
0	21218	3744	1
0	21234	3748	1
0	21243	3750	1
0	21250	3751	1
0	21257	3752	1
0	21276	3755	3
0	21282	3756	4
0	21289	3757	5
0	21295	3758	2
0	21335	3763	1
0	21346	3764	1
0	21402	3774	1
0	21457	3783	1
0	21468	3784	1
0	21477	3785	2
0	21495	3788	1
0	21506	3790	1
0	21529	3794	1
0	21556	3801	1
0	21569	3802	1
0	21583	3803	1
0	21599	3805	1
0	21651	3812	1
0	21670	3814	1
0	21680	3815	2
0	21696	3818	4
0	21707	3821	1
0	21733	3829	1
0	21743	3830	1
0	21755	3831	1
0	21772	3836	1
0	21782	3837	1
0	21791	3838	1
0	21803	3841	1
0	21810	3842	2
0	21820	3843	2
0	21853	3848	1
0	21865	3850	1
0	21899	3856	1
0	21922	3861	1
0	21933	3864	1
0	21940	3865	1
0	21951	3868	1
0	22016	3878	1
0	22032	3880	1
0	22059	3884	1
0	22068	3886	1
0	22075	3887	1
0	22088	3888	1
0	22098	3889	2
0	22110	3890	1
0	22132	3893	1
0	22144	3894	2
0	22154	3895	3
0	22165	3896	1
0	22180	3898	1
0	22241	3910	1
0	22269	3919	1
0	22304	3929	1
0	22311	3930	1
0	22345	3939	1
0	22351	3940	2
0	22390	3947	1
0	22428	3955	1
0	22455	3961	1
0	22473	3964	1
0	22482	3965	2
0	22510	3974	1
0	22528	3980	1
0	22535	3981	2
0	22542	3982	2
0	22553	3983	2
0	22564	3984	2
0	22579	3986	1
0	22592	3989	1
0	22602	3990	1
0	22609	3991	1
0	22616	3992	1
0	22645	3997	1
0	22655	3998	2
0	22667	4000	1
0	22696	4006	1
0	22744	4020	1
0	22766	4022	1
0	22776	4023	2
0	22801	4026	3
0	22807	4027	4
0	22830	4030	1
0	22840	4031	1
0	22873	4037	1
0	22879	4038	2
0	22886	4039	1
0	22896	4040	1
0	22934	4046	1
0	22946	4047	2
0	22963	4049	1
0	23002	4057	1
0	23036	4064	1
0	23065	4071	1
0	23083	4074	1
0	23116	4079	1
0	23133	4081	1
0	23149	4083	1
0	23158	4085	1
0	23173	4089	1
0	23195	4092	2
0	23214	4094	1
0	23250	4103	1
0	23261	4105	1
0	23291	4111	1
0	23339	4124	1
0	23363	4127	1
0	23370	4128	1
0	23388	4131	1
0	23438	4139	1
0	23444	4140	2
0	23473	4147	1
0	23484	4148	1
0	23495	4149	2
0	23515	4152	1
0	23542	4158	1
0	23553	4159	1
0	23559	4160	2
0	23569	4161	1
0	23589	4164	1
0	23618	4169	1
0	23639	4172	1
0	23662	4176	1
0	23691	4183	1
0	23698	4184	1
0	23707	4186	1
0	23718	4187	1
0	23733	4189	1
0	23740	4190	1
0	23767	4198	1
0	23776	4199	2
0	23800	4205	1
0	23807	4206	1
0	23860	4220	1
0	23871	4221	1
0	23883	4222	1
0	23897	4223	2
0	23908	4224	1
0	23921	4225	1
0	23933	4226	1
0	23958	4229	3
0	23970	4230	4
0	23981	4231	3
0	23991	4232	3
0	23997	4233	2
0	24015	4235	1
0	24048	4241	1
0	24057	4243	1
0	24066	4245	1
0	24073	4246	1
0	24080	4247	1
0	24091	4250	1
0	24098	4251	1
0	24115	4257	1
0	24130	4262	1
0	24140	4263	1
0	24149	4264	1
0	24156	4265	1
0	24167	4266	1
0	24185	4268	1
0	24225	4274	1
0	24232	4275	1
0	24240	4276	1
0	24249	4277	2
0	24264	4281	1
0	24271	4282	1
0	24287	4285	1
0	24301	4287	1
0	24312	4288	1
0	24326	4289	1
0	24338	4290	2
0	24348	4291	3
0	24365	4294	1
0	24381	4297	1
0	24401	4301	1
0	24441	4307	1
0	24459	4310	1
0	24483	4313	1
0	24550	4324	1
0	24562	4325	1
0	24576	4328	4
0	24590	4329	5
0	24600	4330	3
0	24610	4331	3
0	24652	4337	1
0	24702	4345	1
0	24751	4354	1
0	24772	4357	1
0	24784	4358	2
0	24794	4359	2
0	24805	4360	1
0	24825	4366	1
0	24832	4367	1
0	24839	4368	1
0	24876	4374	1
0	24884	4375	1
0	24890	4376	2
0	24903	4379	1
0	24942	4387	1
0	24979	4394	1
0	24998	4397	1
0	25014	4400	1
0	25037	4404	1
0	25083	4413	1
0	25099	4415	1
0	25114	4420	1
0	25125	4423	1
0	25134	4425	1
0	25162	4429	1
0	25175	4430	1
0	25185	4431	2
0	25196	4432	3
0	25205	4433	2
0	25240	4439	1
0	25250	4440	2
0	25256	4441	2
0	25327	4457	1
0	25351	4461	1
0	25365	4465	1
0	25377	4466	2
0	25398	4469	4
0	25407	4471	1
0	25416	4473	1
0	25428	4476	1
0	25438	4477	2
0	25450	4478	1
0	25470	4480	1
0	25517	4486	1
0	25565	4492	1
0	25591	4495	1
0	25608	4497	1
0	25626	4499	1
0	25653	4502	1
0	25663	4503	2
0	25689	4506	1
0	25760	4516	1
0	25778	4519	1
0	25785	4520	1
0	25802	4523	1
0	25811	4524	2
0	25838	4531	1
0	25850	4533	1
0	25861	4534	2
0	25918	4542	1
0	25950	4547	1
0	25957	4548	1
0	25980	4551	1
0	25992	4552	1
0	26004	4554	1
0	26011	4555	1
0	26022	4558	1
0	26037	4563	1
0	26050	4567	1
0	26057	4568	1
0	26070	4572	1
0	26079	4574	1
0	26094	4578	1
0	26110	4582	1
0	26125	4586	1
0	26135	4587	1
0	26200	4597	1
0	26261	4607	1
0	26278	4609	1
0	26315	4614	1
0	26325	4615	1
0	26349	4620	1
0	26368	4623	1
0	26393	4627	1
0	26425	4634	1
0	26442	4640	1
0	26454	4642	1
0	26465	4643	1
0	26489	4646	1
0	26499	4647	2
0	26529	4651	1
0	26540	4654	1
0	26551	4656	1
0	26568	4659	1
0	26608	4668	1
0	26618	4669	1
0	26650	4674	1
0	26661	4675	2
0	26671	4676	2
0	26677	4677	2
0	26702	4682	1
0	26745	4688	1
0	26770	4691	1
0	26827	4701	1
0	26839	4702	1
0	26854	4705	1
0	26860	4706	2
0	26876	4709	1
0	26885	4711	1
0	26907	4717	1
0	26915	4718	1
0	26921	4719	2
0	26937	4722	1
0	26946	4724	1
0	26960	4726	1
0	26994	4732	1
0	27011	4735	4
0	27017	4736	5
0	27024	4737	5
0	27032	4738	2
0	27038	4739	2
0	27048	4740	3
0	27056	4741	2
0	27072	4743	1
0	27089	4745	1
0	27108	4749	1
0	27114	4750	2
0	27141	4756	1
0	27164	4759	1
0	27209	4765	1
0	27220	4766	1
0	27258	4772	1
0	27265	4773	1
0	27285	4778	1
0	27298	4781	1
0	27311	4782	1
0	27330	4785	2
0	27367	4792	1
0	27413	4800	1
0	27424	4801	1
0	27434	4802	1
0	27470	4811	1
0	27496	4815	1
0	27502	4816	2
0	27509	4817	1
0	27524	4822	1
0	27553	4829	1
0	27560	4830	1
0	27567	4831	1
0	27584	4834	1
0	27590	4835	2
0	27600	4836	1
0	27612	4837	1
0	27624	4838	1
0	27635	4840	1
0	27642	4841	1
0	27654	4844	1
0	27661	4845	1
0	27676	4850	1
0	27696	4854	1
0	27755	4867	1
0	27765	4868	1
0	27774	4869	1
0	27810	4879	1
0	27817	4880	2
0	27823	4881	2
0	27859	4889	1
0	27886	4895	1
0	27893	4896	1
0	27943	4903	1
0	27954	4904	2
0	27964	4905	2
0	27982	4907	1
0	28028	4916	1
0	28046	4920	1
0	28072	4928	1
0	28092	4931	2
0	28101	4932	2
0	28111	4933	1
0	28136	4936	1
0	28156	4938	1
0	28185	4943	1
0	28219	4951	1
0	28234	4956	1
0	28246	4958	1
0	28271	4962	1
0	28288	4966	1
0	28298	4967	2
0	28335	4973	1
0	28345	4974	1
0	28357	4977	1
0	28367	4978	2
0	28382	4980	1
0	28404	4986	1
1	2242	401	1
1	2242	401	0
1	2252	402	1
1	2254	402	0
1	2355	425	1
1	2355	425	0
1	2369	427	1
1	2369	427	0
1	2380	430	1
1	2380	430	0
1	2385	431	1
1	2386	431	2
1	2388	431	1
1	2394	432	0
1	2438	441	1
1	2438	441	0
1	2452	444	1
1	2452	444	0
1	2466	446	1
1	2466	446	0
1	2493	451	1
1	2493	451	0
1	2498	452	1
1	2501	452	0
1	2514	454	1
1	2514	454	0
1	2525	457	1
1	2525	457	0
1	2534	459	1
1	2534	459	0
1	2535	459	1
1	2541	460	0
1	2553	462	1
1	2553	462	0
1	2566	465	1
1	2566	465	0
1	2583	471	1
1	2583	471	0
1	2584	471	1
1	2590	472	0
1	2618	477	1
1	2618	477	0
1	2636	480	1
1	2636	480	0
1	2637	480	1
1	2643	481	0
1	2695	495	1
1	2695	495	0
1	2705	496	1
1	2707	496	0
1	2729	500	1
1	2729	500	0
1	2754	504	1
1	2754	504	0
1	2770	506	1
1	2776	507	0
1	2792	511	1
1	2792	511	0
1	2814	514	1
1	2814	514	0
1	2862	520	1
1	2862	520	0
1	2863	520	1
1	2864	520	2
1	2874	521	1
1	2884	522	0
1	2895	524	1
1	2895	524	0
1	2932	535	1
1	2932	535	0
1	2949	537	1
1	2949	537	0
1	2964	541	1
1	2964	541	0
1	2980	545	1
1	2980	545	0
1	3007	551	1
1	3007	551	0
1	3036	555	1
1	3036	555	0
1	3055	559	1
1	3055	559	0
1	3077	566	1
1	3077	566	0
1	3084	567	1
1	3086	567	0
1	3101	572	1
1	3101	572	0
1	3115	575	1
1	3115	575	0
1	3131	578	1
1	3131	578	0
1	3142	579	1
1	3144	579	0
1	3165	582	1
1	3165	582	0
1	3196	589	1
1	3196	589	0
1	3229	598	1
1	3229	598	0
1	3230	598	1
1	3231	598	2
1	3238	599	1
1	3245	600	2
1	3249	600	1
1	3256	601	0
1	3280	604	1
1	3280	604	0
1	3281	604	1
1	3291	605	0
1	3312	612	1
1	3312	612	0
1	3337	615	1
1	3337	615	0
1	3347	616	1
1	3351	616	0
1	3376	619	1
1	3376	619	0
1	3377	619	1
1	3389	620	0
1	3407	622	1
1	3407	622	0
1	3438	626	1
1	3438	626	0
1	3439	626	1
1	3447	627	0
1	3452	628	1
1	3454	628	0
1	3463	630	1
1	3463	630	0
1	3483	635	1
1	3483	635	0
1	3484	635	1
1	3489	636	2
1	3491	636	1
1	3510	639	0
1	3531	646	1
1	3531	646	0
1	3540	648	1
1	3540	648	0
1	3560	653	1
1	3560	653	0
1	3584	656	1
1	3584	656	0
1	3598	658	1
1	3598	658	0
1	3630	663	1
1	3630	663	0
1	3653	667	1
1	3653	667	0
1	3684	675	1
1	3684	675	0
1	3698	678	1
1	3698	678	0
1	3775	693	1
1	3775	693	0
1	3788	697	1
1	3788	697	0
1	3789	697	1
1	3795	698	0
1	3807	700	1
1	3807	700	0
1	3826	702	1
1	3826	702	0
1	3833	703	1
1	3835	703	0
1	3840	704	1
1	3842	704	0
1	3847	705	1
1	3849	705	0
1	3865	708	1
1	3865	708	0
1	3866	708	1
1	3867	708	2
1	3873	709	1
1	3887	712	0
1	3888	712	1
1	3901	713	2
1	3903	713	1
1	3912	714	2
1	3914	714	1
1	3925	715	0
1	3934	716	1
1	3936	716	0
1	3945	717	1
1	3947	717	0
1	3954	718	1
1	3955	718	2
1	3957	718	1
1	3962	719	2
1	3964	719	1
1	3970	720	0
1	3975	721	1
1	3978	721	0
1	4008	725	1
1	4008	725	0
1	4019	727	1
1	4019	727	0
1	4020	727	1
1	4025	728	2
1	4027	728	1
1	4032	729	2
1	4034	729	1
1	4042	730	0
1	4049	731	1
1	4054	731	0
1	4061	732	1
1	4066	732	0
1	4073	733	1
1	4077	733	0
1	4092	736	1
1	4092	736	0
1	4097	737	1
1	4100	737	0
1	4107	738	1
1	4121	740	0
1	4122	740	1
1	4133	741	0
1	4154	744	1
1	4154	744	0
1	4159	745	1
1	4161	745	0
1	4166	746	1
1	4168	746	0
1	4185	750	1
1	4185	750	0
1	4186	750	1
1	4187	750	2
1	4188	750	3
1	4199	751	2
1	4210	752	1
1	4219	753	2
1	4221	753	1
1	4228	754	2
1	4230	754	1
1	4236	755	0
1	4248	757	1
1	4248	757	0
1	4311	771	1
1	4311	771	0
1	4329	774	1
1	4329	774	0
1	4387	789	1
1	4387	789	0
1	4403	791	1
1	4403	791	0
1	4433	796	1
1	4433	796	0
1	4438	797	1
1	4442	797	0
1	4463	801	1
1	4463	801	0
1	4476	803	1
1	4476	803	0
1	4510	807	1
1	4510	807	0
1	4531	812	1
1	4531	812	0
1	4552	816	1
1	4552	816	0
1	4575	824	1
1	4575	824	0
1	4576	824	1
1	4582	825	0
1	4628	838	1
1	4628	838	0
1	4636	839	1
1	4638	839	0
1	4649	841	1
1	4649	841	0
1	4660	844	1
1	4660	844	0
1	4669	846	1
1	4669	846	0
1	4697	855	1
1	4697	855	0
1	4756	872	1
1	4756	872	0
1	4787	880	1
1	4787	880	0
1	4800	882	1
1	4800	882	0
1	4809	883	1
1	4812	883	0
1	4854	892	1
1	4854	892	0
1	4865	894	1
1	4865	894	0
1	4866	894	1
1	4872	895	0
1	4884	897	1
1	4884	897	0
1	4885	897	1
1	4893	898	0
1	4920	902	1
1	4920	902	0
1	4921	902	1
1	4922	902	2
1	4937	903	1
1	4947	904	0
1	4974	908	1
1	4974	908	0
1	4979	909	1
1	4980	909	2
1	4982	909	1
1	4987	910	2
1	4990	910	1
1	4997	911	2
1	5001	911	1
1	5006	912	2
1	5008	912	1
1	5017	913	0
1	5032	915	1
1	5032	915	0
1	5057	918	1
1	5057	918	0
1	5076	924	1
1	5076	924	0
1	5084	925	1
1	5087	925	0
1	5116	929	1
1	5116	929	0
1	5117	929	1
1	5127	930	0
1	5158	935	1
1	5158	935	0
1	5185	941	1
1	5185	941	0
1	5186	941	1
1	5191	942	2
1	5193	942	1
1	5199	943	0
1	5212	947	1
1	5212	947	0
1	5220	948	1
1	5232	950	0
1	5243	952	1
1	5243	952	0
1	5244	952	1
1	5253	953	0
1	5289	960	1
1	5289	960	0
1	5300	963	1
1	5300	963	0
1	5324	970	1
1	5324	970	0
1	5329	971	1
1	5331	971	0
1	5340	973	1
1	5340	973	0
1	5384	980	1
1	5384	980	0
1	5398	982	1
1	5398	982	0
1	5411	986	1
1	5411	986	0
1	5412	986	1
1	5421	987	0
1	5428	988	1
1	5430	988	0
1	5454	996	1
1	5454	996	0
1	5455	996	1
1	5465	997	2
1	5467	997	1
1	5474	998	2
1	5476	998	1
1	5481	999	2
1	5483	999	1
1	5488	1000	2
1	5490	1000	1
1	5495	1001	2
1	5498	1001	1
1	5508	1002	0
1	5527	1007	1
1	5527	1007	0
1	5534	1008	1
1	5536	1008	0
1	5579	1022	1
1	5579	1022	0
1	5580	1022	1
1	5586	1023	0
1	5591	1024	1
1	5594	1024	0
1	5622	1031	1
1	5622	1031	0
1	5655	1036	1
1	5655	1036	0
1	5670	1040	1
1	5670	1040	0
1	5671	1040	1
1	5678	1041	0
1	5685	1042	1
1	5690	1042	0
1	5710	1045	1
1	5710	1045	0
1	5730	1050	1
1	5730	1050	0
1	5751	1053	1
1	5751	1053	0
1	5779	1057	1
1	5779	1057	0
1	5788	1058	1
1	5791	1058	0
1	5816	1063	1
1	5816	1063	0
1	5868	1074	1
1	5868	1074	0
1	5873	1075	1
1	5876	1075	0
1	5883	1076	1
1	5887	1076	0
1	5892	1077	1
1	5896	1077	0
1	5903	1078	1
1	5919	1080	0
1	5954	1085	1
1	5954	1085	0
1	5989	1094	1
1	5989	1094	0
1	6012	1098	1
1	6012	1098	0
1	6033	1101	1
1	6033	1101	0
1	6034	1101	1
1	6041	1102	0
1	6048	1103	1
1	6052	1103	0
1	6061	1105	1
1	6061	1105	0
1	6062	1105	1
1	6071	1106	0
1	6078	1107	1
1	6082	1107	0
1	6089	1108	1
1	6094	1108	0
1	6120	1113	1
1	6120	1113	0
1	6121	1113	1
1	6130	1114	0
1	6137	1115	1
1	6141	1115	0
1	6146	1116	1
1	6147	1116	2
1	6148	1116	3
1	6151	1116	2
1	6162	1117	1
1	6172	1118	0
1	6177	1119	1
1	6179	1119	0
1	6184	1120	1
1	6186	1120	0
1	6209	1125	1
1	6209	1125	0
1	6247	1131	1
1	6247	1131	0
1	6248	1131	1
1	6256	1132	0
1	6287	1140	1
1	6287	1140	0
1	6288	1140	1
1	6293	1141	2
1	6296	1141	1
1	6306	1142	0
1	6323	1146	1
1	6323	1146	0
1	6324	1146	1
1	6333	1147	2
1	6338	1147	1
1	6347	1148	2
1	6349	1148	1
1	6360	1149	0
1	6395	1154	1
1	6395	1154	0
1	6419	1157	1
1	6419	1157	0
1	6426	1158	1
1	6427	1158	2
1	6429	1158	1
1	6436	1159	0
1	6443	1160	1
1	6447	1160	0
1	6461	1163	1
1	6461	1163	0
1	6468	1164	1
1	6470	1164	0
1	6481	1167	1
1	6481	1167	0
1	6493	1169	1
1	6493	1169	0
1	6507	1171	1
1	6507	1171	0
1	6551	1177	1
1	6551	1177	0
1	6559	1178	1
1	6568	1180	0
1	6591	1184	1
1	6591	1184	0
1	6626	1190	1
1	6626	1190	0
1	6648	1193	1
1	6648	1193	0
1	6663	1195	1
1	6663	1195	0
1	6668	1196	1
1	6670	1196	0
1	6675	1197	1
1	6677	1197	0
1	6682	1198	1
1	6685	1198	0
1	6698	1200	1
1	6698	1200	0
1	6712	1203	1
1	6712	1203	0
1	6713	1203	1
1	6725	1204	0
1	6740	1206	1
1	6740	1206	0
1	6749	1208	1
1	6749	1208	0
1	6767	1213	1
1	6767	1213	0
1	6783	1216	1
1	6783	1216	0
1	6802	1222	1
1	6802	1222	0
1	6826	1227	1
1	6826	1227	0
1	6827	1227	1
1	6837	1228	0
1	6848	1230	1
1	6848	1230	0
1	6859	1233	1
1	6859	1233	0
1	6867	1235	1
1	6871	1236	0
1	6876	1237	1
1	6878	1237	0
1	6887	1239	1
1	6887	1239	0
1	6917	1244	1
1	6917	1244	0
1	6925	1245	1
1	6927	1245	0
1	6998	1262	1
1	6998	1262	0
1	6999	1262	1
1	7009	1263	0
1	7024	1265	1
1	7024	1265	0
1	7043	1268	1
1	7043	1268	0
1	7058	1270	1
1	7058	1270	0
1	7080	1273	1
1	7080	1273	0
1	7088	1274	1
1	7089	1274	2
1	7091	1274	1
1	7099	1275	0
1	7112	1279	1
1	7112	1279	0
1	7124	1281	1
1	7124	1281	0
1	7233	1312	1
1	7233	1312	0
1	7294	1323	1
1	7294	1323	0
1	7304	1324	1
1	7305	1324	2
1	7308	1324	1
1	7319	1325	0
1	7328	1326	1
1	7330	1326	0
1	7348	1329	1
1	7348	1329	0
1	7353	1330	1