version 3
run Experimentos-664-20260508-20:06:10-31158
attr configname Experimentos
attr datetime 20260508-20:06:10
attr datetimef 20260508-200610
attr experiment Experimentos
attr inifile TwoQueues.ini
attr iterationvars "$p=0.7, $q=0.2, $Y=30, $m=3"
attr iterationvarsd p=0.7/q=0.2/Y=30/m=3
attr iterationvarsf p=0.7,q=0.2,Y=30,m=3-
attr measurement "$p=0.7, $q=0.2, $Y=30, $m=3"
attr network TwoQueues
attr processid 31158
attr repetition 4
attr replication #4
attr resultdir results
attr runnumber 664
attr seedset 664
itervar Y 30
itervar m 3
itervar p 0.7
itervar q 0.2
config description "Barrido completo de parámetros Proyecto 12"
config **.source1.p 0.7
config **.source1.q 0.2
config **.source2.p 0.6
config **.source2.q 0.2
config **.serverWithMaintenance.Y 30
config **.serverWithMaintenance.m 3
config network TwoQueues
config cpu-time-limit 5000s
config sim-time-limit 5000s
config warmup-period 400s
config repeat 20
config output-scalar-file results/Experimentos-p=0.7,q=0.2,Y=30,m=3--#4.sca
config output-vector-file results/Experimentos-p=0.7,q=0.2,Y=30,m=3--#4.vec
config **.vector-recording true

vector 0 TwoQueues.serverWithMaintenance residenceTime2:vector ETV
attr recordingmode vector
attr source delay2
attr title "Residence Time Class 2"
vector 1 TwoQueues.queue2 queueLengthStats:vector ETV
attr recordingmode vector
attr source qlen
attr title "Average Queue Length"
vector 2 TwoQueues.queue1 queueLengthStats:vector ETV
attr recordingmode vector
attr source qlen
attr title "Average Queue Length"
vector 3 TwoQueues.server residenceTime1:vector ETV
attr recordingmode vector
attr source delay1
attr title "Residence Time Class 1"
vector 4 TwoQueues.server throughputStats1:vector ETV
attr recordingmode vector
attr source throughput1
attr title "Throughput Class 1"
0	2239	402	1
0	2258	405	1
0	2276	408	1
0	2296	413	1
0	2346	423	1
0	2357	425	1
0	2378	427	1
0	2389	428	2
0	2409	430	1
0	2420	431	1
0	2432	432	1
0	2463	437	1
0	2474	438	2
0	2540	451	1
0	2557	453	1
0	2563	454	2
0	2573	455	1
0	2599	462	1
0	2606	463	1
0	2666	478	1
0	2686	483	1
0	2744	493	1
0	2785	498	1
0	2839	505	1
0	2922	517	1
0	2947	521	1
0	2973	525	5
0	2979	526	6
0	2988	527	5
0	3013	532	1
0	3023	533	2
0	3032	534	2
0	3086	541	1
0	3098	542	1
0	3110	543	1
0	3201	561	1
0	3299	578	1
0	3342	587	1
0	3358	589	1
0	3398	596	1
0	3440	606	1
0	3453	608	1
0	3463	609	2
0	3474	610	1
0	3560	626	1
0	3573	627	1
0	3594	630	1
0	3614	633	1
0	3624	634	1
0	3661	639	1
0	3671	640	1
0	3696	645	1
0	3735	650	1
0	3766	654	1
0	3778	656	1
0	3812	661	1
0	3837	665	2
0	3853	668	1
0	3889	674	1
0	3941	687	1
0	3980	693	1
0	3992	695	1
0	4012	700	1
0	4019	701	1
0	4056	712	1
0	4066	713	1
0	4088	718	1
0	4117	725	1
0	4128	727	1
0	4155	736	1
0	4161	737	2
0	4177	740	1
0	4238	753	1
0	4246	754	1
0	4252	755	2
0	4259	756	1
0	4429	795	1
0	4448	798	1
0	4470	804	1
0	4490	808	1
0	4504	810	1
0	4596	827	1
0	4617	830	1
0	4628	832	1
0	4647	834	1
0	4659	836	1
0	4702	847	1
0	4761	863	1
0	4798	869	1
0	4848	880	1
0	4865	886	1
0	4956	906	1
0	4974	908	1
0	4986	909	1
0	5041	919	1
0	5052	922	1
0	5119	937	1
0	5144	942	1
0	5154	943	1
0	5161	944	1
0	5179	947	1
0	5200	950	1
0	5267	967	1
0	5274	968	1
0	5290	971	1
0	5305	975	1
0	5322	978	1
0	5333	979	1
0	5349	983	1
0	5356	984	1
0	5387	992	1
0	5419	998	1
0	5449	1007	1
0	5549	1021	1
0	5612	1030	1
0	5630	1032	1
0	5656	1036	5
0	5697	1049	1
0	5736	1060	1
0	5787	1068	1
0	5818	1076	1
0	5871	1085	1
0	5883	1086	2
0	5894	1087	3
0	5957	1098	1
0	5979	1104	1
0	5993	1107	1
0	6032	1113	1
0	6042	1114	1
0	6132	1134	1
0	6143	1136	1
0	6168	1142	1
0	6198	1147	1
0	6210	1149	1
0	6223	1150	1
0	6274	1158	1
0	6284	1159	2
0	6384	1185	1
0	6407	1188	1
0	6421	1191	1
0	6449	1195	1
0	6472	1199	1
0	6495	1203	1
0	6539	1215	1
0	6546	1216	1
0	6569	1221	1
0	6610	1229	1
0	6624	1231	1
0	6664	1238	1
0	6683	1240	1
0	6708	1243	1
0	6727	1246	1
0	6820	1263	1
0	6855	1270	1
0	6911	1283	1
0	6920	1285	1
0	6989	1304	1
0	6995	1305	2
0	7024	1310	1
0	7036	1311	1
0	7047	1312	1
0	7065	1314	1
0	7155	1329	1
0	7172	1331	1
0	7236	1342	1
0	7246	1343	1
0	7257	1346	1
0	7268	1348	1
0	7318	1359	1
0	7366	1368	1
0	7373	1369	1
0	7391	1373	1
0	7429	1380	1
0	7448	1382	1
0	7479	1386	1
0	7500	1390	1
0	7551	1399	1
0	7637	1418	1
0	7655	1421	1
0	7720	1433	1
0	7781	1445	1
0	7803	1450	1
0	7841	1459	1
0	7854	1460	1
0	7873	1462	1
0	7913	1471	1
0	7926	1474	1
0	7940	1477	1
0	7960	1482	1
0	7968	1483	1
0	7974	1484	2
0	7994	1489	1
0	8001	1490	1
0	8010	1492	1
0	8017	1493	1
0	8077	1507	1
0	8111	1514	1
0	8188	1525	1
0	8200	1527	1
0	8216	1529	1
0	8250	1538	1
0	8296	1548	1
0	8306	1549	2
0	8316	1550	1
0	8332	1553	1
0	8349	1559	1
0	8365	1564	1
0	8413	1577	1
0	8445	1583	1
0	8531	1607	1
0	8561	1612	1
0	8568	1613	1
0	8578	1614	1
0	8606	1622	1
0	8613	1623	1
0	8661	1632	1
0	8686	1636	1
0	8706	1638	1
0	8741	1646	1
0	8761	1650	1
0	8771	1651	2
0	8798	1654	1
0	8818	1658	1
0	8832	1660	1
0	8948	1685	1
0	8967	1687	1
0	9024	1695	1
0	9059	1706	1
0	9118	1716	1
0	9167	1726	1
0	9185	1728	1
0	9195	1729	1
0	9202	1730	1
0	9291	1743	1
0	9310	1745	1
0	9339	1749	1
0	9397	1762	1
0	9409	1763	1
0	9420	1764	2
0	9432	1765	1
0	9462	1772	1
0	9479	1775	1
0	9485	1776	2
0	9508	1785	1
0	9578	1795	1
0	9604	1799	1
0	9644	1807	1
0	9682	1812	1
0	9712	1816	1
0	9746	1823	1
0	9756	1824	1
0	9767	1826	1
0	9777	1827	1
0	9832	1837	1
0	9864	1843	1
0	9909	1853	1
0	9916	1854	1
0	9936	1858	1
0	9968	1865	1
0	9992	1870	1
0	10009	1872	1
0	10046	1878	1
0	10066	1880	1
0	10076	1881	2
0	10083	1882	2
0	10089	1883	2
0	10120	1887	2
0	10142	1894	1
0	10162	1901	1
0	10168	1902	2
0	10188	1907	1
0	10204	1910	1
0	10236	1916	1
0	10262	1924	1
0	10273	1927	1
0	10310	1937	1
0	10322	1938	1
0	10341	1941	1
0	10382	1950	1
0	10433	1958	1
0	10442	1959	2
0	10451	1961	1
0	10458	1962	1
0	10506	1976	1
0	10573	1987	1
0	10690	2013	1
0	10697	2014	1
0	10708	2017	1
0	10716	2018	1
0	10723	2019	2
0	10730	2020	2
0	10737	2021	2
0	10747	2022	2
0	10792	2029	1
0	10803	2032	1
0	10931	2065	1
0	10948	2069	1
0	10970	2074	1
0	11058	2105	1
0	11139	2118	1
0	11167	2123	1
0	11174	2124	2
0	11181	2125	2
0	11187	2126	2
0	11200	2129	1
0	11235	2140	1
0	11293	2148	1
0	11349	2156	1
0	11361	2157	2
0	11411	2163	1
0	11423	2164	2
0	11434	2165	2
0	11445	2166	2
0	11456	2167	1
0	11475	2169	1
0	11498	2172	1
0	11511	2173	1
0	11524	2174	1
0	11545	2176	1
0	11557	2177	2
0	11623	2186	1
0	11667	2192	1
0	11745	2204	1
0	11759	2206	1
0	11769	2207	1
0	11814	2217	1
0	11835	2221	4
0	11854	2224	1
0	11862	2225	1
0	11868	2226	2
0	11884	2228	1
0	11896	2230	1
0	11919	2234	1
0	11936	2237	1
0	11942	2238	2
0	11957	2243	1
0	11967	2244	1
0	11987	2246	1
0	12041	2259	1
0	12074	2263	1
0	12086	2265	1
0	12110	2268	1
0	12121	2269	1
0	12232	2297	1
0	12287	2308	1
0	12314	2312	1
0	12331	2314	1
0	12345	2315	1
0	12370	2318	1
0	12396	2321	1
0	12408	2322	1
0	12417	2323	2
0	12426	2325	1
0	12465	2337	1
0	12474	2339	1
0	12529	2350	1
0	12553	2354	4
0	12563	2355	4
0	12572	2356	2
0	12598	2359	1
0	12610	2360	1
0	12662	2370	1
0	12672	2371	1
0	12697	2375	1
0	12713	2377	1
0	12727	2380	1
0	12740	2384	1
0	12756	2387	1
0	12767	2390	1
0	12791	2396	1
0	12863	2412	1
0	12873	2413	1
0	12887	2415	1
0	12896	2417	1
0	12907	2420	1
0	12918	2422	1
0	12935	2424	1
0	13033	2443	1
0	13073	2453	1
0	13082	2455	1
0	13097	2460	1
0	13154	2474	1
0	13188	2479	1
0	13210	2483	1
0	13233	2487	1
0	13289	2501	1
0	13310	2505	3
0	13334	2512	1
0	13371	2517	1
0	13425	2526	1
0	13478	2541	1
0	13494	2543	1
0	13504	2544	1
0	13530	2547	1
0	13540	2548	2
0	13549	2549	2
0	13560	2551	1
0	13569	2553	1
0	13576	2554	1
0	13584	2555	1
0	13590	2556	2
0	13605	2559	1
0	13641	2564	1
0	13654	2568	1
0	13664	2569	1
0	13673	2570	1
0	13720	2578	1
0	13726	2579	2
0	13733	2580	1
0	13754	2584	1
0	13778	2590	1
0	13796	2594	1
0	13886	2611	1
0	13892	2612	2
0	13901	2614	1
0	13937	2622	1
0	13956	2626	3
0	13978	2632	1
0	13989	2635	1
0	14000	2638	1
0	14090	2658	1
0	14099	2660	1
0	14106	2661	1
0	14208	2676	1
0	14224	2680	1
0	14268	2692	1
0	14275	2693	1
0	14284	2695	1
0	14307	2699	1
0	14324	2701	1
0	14363	2712	1
0	14378	2714	1
0	14385	2715	2
0	14391	2716	2
0	14421	2721	1
0	14428	2722	1
0	14439	2725	1
0	14478	2731	1
0	14490	2733	1
0	14539	2745	1
0	14556	2751	1
0	14575	2753	1
0	14609	2757	1
0	14620	2758	2
0	14631	2759	2
0	14641	2760	2
0	14683	2768	1
0	14702	2773	1
0	14708	2774	2
0	14717	2776	1
0	14777	2788	1
0	14783	2789	2
0	14806	2794	1
0	14859	2801	1
0	14877	2806	1
0	14894	2812	1
0	14917	2821	1
0	14937	2825	1
0	14973	2831	1
0	14979	2832	2
0	15003	2839	1
0	15064	2856	1
0	15074	2857	1
0	15100	2861	1
0	15204	2878	1
0	15226	2882	1
0	15251	2888	1
0	15262	2889	1
0	15279	2892	1
0	15289	2894	1
0	15295	2895	2
0	15346	2904	1
0	15362	2906	1
0	15369	2907	1
0	15449	2922	1
0	15465	2924	1
0	15482	2928	2
0	15507	2932	1
0	15523	2936	1
0	15582	2944	1
0	15601	2946	1
0	15624	2949	1
0	15658	2955	1
0	15668	2956	1
0	15746	2975	1
0	15753	2976	1
0	15813	2988	1
0	15822	2989	2
0	15857	2998	1
0	15893	3006	1
0	15916	3014	1
0	15953	3022	1
0	15998	3031	1
0	16031	3043	1
0	16069	3048	1
0	16081	3049	1
0	16092	3050	1
0	16099	3051	2
0	16105	3052	2
0	16130	3055	1
0	16148	3057	1
0	16160	3058	1
0	16215	3068	1
0	16226	3069	1
0	16306	3090	1
0	16325	3096	1
0	16356	3101	1
0	16368	3102	1
0	16388	3108	1
0	16395	3109	1
0	16444	3117	1
0	16463	3119	1
0	16485	3123	1
0	16502	3125	1
0	16563	3140	1
0	16569	3141	2
0	16668	3158	1
0	16680	3159	1
0	16690	3160	2
0	16702	3161	1
0	16756	3172	1
0	16820	3184	1
0	16827	3185	1
0	16874	3193	1
0	16885	3194	1
0	16931	3200	1
0	16942	3201	1
0	16953	3202	1
0	16963	3203	1
0	17039	3220	1
0	17049	3221	1
0	17106	3237	1
0	17116	3238	1
0	17132	3240	1
0	17149	3246	1
0	17160	3248	1
0	17225	3261	1
0	17232	3262	1
0	17243	3263	1
0	17297	3270	1
0	17314	3272	1
0	17331	3274	1
0	17342	3277	1
0	17351	3279	1
0	17396	3294	1
0	17453	3304	1
0	17463	3305	1
0	17474	3308	1
0	17501	3314	1
0	17538	3320	1
0	17574	3332	1
0	17600	3337	1
0	17611	3338	2
0	17622	3339	2
0	17632	3340	3
0	17654	3343	1
0	17664	3345	1
0	17673	3346	2
0	17685	3348	1
0	17692	3349	2
0	17698	3350	2
0	17715	3353	1
0	17721	3354	2
0	17741	3359	1
0	17758	3361	1
0	17822	3376	1
0	17856	3380	1
0	17862	3381	2
0	17868	3382	3
0	17875	3383	1
0	17900	3388	1
0	17931	3395	1
0	17943	3397	1
0	17968	3401	1
0	17985	3403	1
0	18001	3405	1
0	18046	3418	1
0	18052	3419	2
0	18061	3421	1
0	18076	3425	1
0	18149	3436	1
0	18165	3438	1
0	18176	3441	1
0	18193	3445	1
0	18242	3454	1
0	18264	3460	1
0	18324	3475	1
0	18352	3480	1
0	18425	3497	1
0	18437	3498	1
0	18447	3499	1
0	18505	3507	1
0	18519	3509	1
0	18544	3516	1
0	18589	3526	1
0	18621	3531	1
0	18646	3535	5
0	18652	3536	4
0	18659	3537	1
0	18744	3549	1
0	18764	3551	1
0	18794	3555	1
0	18836	3563	1
0	18847	3566	1
0	18865	3570	1
0	18894	3577	1
0	18905	3579	1
0	18948	3587	1
0	18958	3588	2
0	18983	3591	1
0	18993	3592	2
0	19026	3598	1
0	19063	3603	1
0	19084	3606	1
0	19096	3608	1
0	19118	3614	1
0	19131	3618	1
0	19147	3620	1
0	19170	3625	1
0	19183	3628	1
0	19226	3638	1
0	19258	3644	1
0	19277	3647	1
0	19325	3657	1
0	19331	3658	2
0	19372	3666	1
0	19418	3677	1
0	19450	3681	1
0	19478	3687	1
0	19500	3692	1
0	19573	3705	1
0	19626	3719	1
0	19661	3729	1
0	19671	3730	1
0	19706	3735	1
0	19741	3740	1
0	19766	3744	1
0	19787	3747	1
0	19806	3750	1
0	19813	3751	1
0	19820	3752	1
0	19873	3766	1
0	19971	3785	1
0	19985	3787	1
0	19996	3790	1
0	20024	3794	1
0	20036	3795	2
0	20047	3796	1
0	20065	3798	1
0	20089	3801	1
0	20096	3802	2
0	20102	3803	2
0	20131	3810	1
0	20138	3811	1
0	20156	3813	1
0	20166	3814	2
0	20188	3818	3
0	20201	3822	1
0	20212	3825	1
0	20258	3841	1
0	20276	3843	1
0	20308	3848	1
0	20336	3857	1
0	20376	3867	1
0	20391	3871	1
0	20407	3875	1
0	20414	3876	1
0	20425	3878	1
0	20458	3882	1
0	20469	3883	1
0	20476	3884	2
0	20482	3885	2
0	20504	3890	1
0	20520	3894	1
0	20529	3896	1
0	20541	3898	1
0	20587	3904	1
0	20597	3905	1
0	20607	3906	1
0	20616	3907	1
0	20625	3909	1
0	20647	3915	1
0	20658	3918	1
0	20667	3920	1
0	20690	3924	1
0	20704	3927	1
0	20741	3933	1
0	20753	3935	1
0	20771	3939	1
0	20824	3952	1
0	20887	3963	1
0	20898	3964	1
0	20908	3965	1
0	20948	3971	1
0	20957	3972	2
0	21018	3980	1
0	21028	3981	2
0	21047	3983	1
0	21087	3988	1
0	21240	4015	1
0	21313	4030	1
0	21356	4038	1
0	21366	4039	1
0	21393	4045	1
0	21426	4054	1
0	21437	4056	1
0	21447	4057	1
0	21454	4058	1
0	21468	4060	1
0	21492	4067	1
0	21537	4077	1
0	21553	4080	1
0	21562	4082	1
0	21578	4085	1
0	21585	4086	1
0	21618	4095	1
0	21645	4099	1
0	21696	4111	1
0	21705	4113	1
0	21712	4114	1
0	21751	4121	1
0	21782	4129	1
0	21835	4142	1
0	21864	4150	1
0	21891	4154	1
0	21908	4156	1
0	21936	4161	1
0	21951	4166	1
0	21963	4167	1
0	21992	4173	1
0	22028	4180	1
0	22037	4181	2
0	22043	4182	3
0	22060	4188	1
0	22085	4192	1
0	22119	4199	1
0	22131	4201	1
0	22138	4202	1
0	22185	4213	1
0	22205	4218	1
0	22229	4225	1
0	22281	4235	1
0	22291	4236	1
0	22315	4244	1
0	22345	4248	1
0	22368	4251	1
0	22430	4260	1
0	22489	4269	1
0	22507	4271	1
0	22525	4273	1
0	22561	4278	1
0	22578	4284	1
0	22701	4314	1
0	22711	4315	2
0	22720	4316	2
0	22754	4322	1
0	22763	4324	1
0	22805	4334	1
0	22817	4335	1
0	22827	4336	1
0	22859	4341	1
0	22869	4342	1
0	22920	4349	1
0	22934	4352	1
0	22941	4353	1
0	22948	4354	1
0	22957	4356	1
0	22981	4361	1
0	22991	4362	2
0	23016	4368	1
0	23027	4371	1
0	23041	4375	1
0	23047	4376	2
0	23056	4378	1
0	23076	4383	1
0	23114	4394	1
0	23131	4398	5
0	23141	4399	4
0	23178	4406	1
0	23194	4410	1
0	23204	4411	2
0	23210	4412	2
0	23217	4413	1
0	23282	4428	1
0	23296	4430	1
0	23335	4438	1
0	23360	4442	1
0	23376	4444	1
0	23399	4448	1
0	23510	4472	1
0	23550	4482	1
0	23615	4502	1
0	23625	4504	1
0	23635	4505	2
0	23646	4506	2
0	23670	4512	1
0	23708	4521	1
0	23725	4523	1
0	23745	4527	1
0	23752	4528	1
0	23765	4532	1
0	23819	4544	1
0	23876	4559	1
0	23908	4565	1
0	23943	4571	1
0	23956	4574	1
0	23980	4578	4
0	23986	4579	4
0	23993	4580	3
0	23999	4581	2
0	24066	4602	1
0	24102	4610	1
0	24131	4616	1
0	24141	4617	2
0	24153	4618	3
0	24165	4619	1
0	24175	4620	2
0	24186	4621	1
0	24202	4625	1
0	24269	4640	1
0	24281	4642	1
0	24294	4646	1
0	24308	4648	1
0	24345	4659	1
0	24381	4667	1
0	24406	4672	1
0	24431	4677	1
0	24467	4684	1
0	24489	4689	1
0	24502	4690	2
0	24520	4692	1
0	24531	4693	1
0	24600	4703	1
0	24663	4713	1
0	24670	4714	1
0	24683	4717	1
0	24701	4721	2
0	24710	4722	3
0	24734	4728	1
0	24753	4732	1
0	24760	4733	2
0	24766	4734	2
0	24890	4751	1
0	24938	4760	1
0	24961	4765	1
0	25005	4771	1
0	25044	4778	1
0	25081	4784	1
0	25126	4798	1
0	25172	4812	1
0	25272	4830	1
0	25289	4832	1
0	25306	4834	1
0	25361	4844	1
0	25373	4845	1
0	25393	4847	1
0	25452	4855	1
0	25485	4861	1
0	25500	4866	1
0	25510	4867	1
0	25549	4874	1
0	25560	4875	1
0	25570	4876	1
0	25599	4883	1
0	25620	4886	1
0	25651	4895	1
0	25679	4899	4
0	25686	4900	5
0	25692	4901	3
0	25699	4902	3
0	25708	4903	2
0	25797	4918	1
0	25870	4935	1
0	25876	4936	2
0	25883	4937	1
0	25932	4949	1
0	26048	4972	1
0	26062	4975	1
0	26087	4980	1
0	26105	4983	1
0	26164	4995	1
1	2235	401	1
1	2235	401	0
1	2250	404	1
1	2250	404	0
1	2272	407	1
1	2272	407	0
1	2292	412	1
1	2292	412	0
1	2342	422	1
1	2342	422	0
1	2351	424	1
1	2351	424	0
1	2370	426	1
1	2370	426	0
1	2371	426	1
1	2382	427	0
1	2401	429	1
1	2401	429	0
1	2411	430	1
1	2413	430	0
1	2422	431	1
1	2425	431	0
1	2455	436	1
1	2455	436	0
1	2456	436	1
1	2467	437	0
1	2531	450	1
1	2531	450	0
1	2550	452	1
1	2550	452	0
1	2551	452	1
1	2559	453	0
1	2564	454	1
1	2567	454	0
1	2595	461	1
1	2595	461	0
1	2600	462	1
1	2602	462	0
1	2662	477	1
1	2662	477	0
1	2682	482	1
1	2682	482	0
1	2737	492	1
1	2737	492	0
1	2775	497	1
1	2775	497	0
1	2832	504	1
1	2832	504	0
1	2914	516	1
1	2914	516	0
1	2938	520	1
1	2938	520	0
1	2939	520	1
1	2940	520	2
1	2956	522	3
1	2967	524	2
1	2975	525	1
1	2982	526	0
1	3006	531	1
1	3006	531	0
1	3007	531	1
1	3015	532	2
1	3017	532	1
1	3026	533	0
1	3078	540	1
1	3078	540	0
1	3088	541	1
1	3091	541	0
1	3100	542	1
1	3103	542	0
1	3194	560	1
1	3194	560	0
1	3292	577	1
1	3292	577	0
1	3334	586	1
1	3334	586	0
1	3350	588	1
1	3350	588	0
1	3392	595	1
1	3392	595	0
1	3433	605	1
1	3433	605	0
1	3448	607	1
1	3448	607	0
1	3449	607	1
1	3457	608	0
1	3464	609	1
1	3468	609	0
1	3554	625	1
1	3554	625	0
1	3562	626	1
1	3566	626	0
1	3587	629	1
1	3587	629	0
1	3608	632	1
1	3608	632	0
1	3616	633	1
1	3618	633	0
1	3654	638	1
1	3654	638	0
1	3663	639	1
1	3665	639	0
1	3687	644	1
1	3687	644	0
1	3726	649	1
1	3726	649	0
1	3759	653	1
1	3759	653	0
1	3774	655	1
1	3774	655	0
1	3805	660	1
1	3805	660	0
1	3827	663	1
1	3833	664	0
1	3849	667	1
1	3849	667	0
1	3881	673	1
1	3881	673	0
1	3937	686	1
1	3937	686	0
1	3973	692	1
1	3973	692	0
1	3988	694	1
1	3988	694	0
1	4008	699	1
1	4008	699	0
1	4013	700	1
1	4015	700	0
1	4050	711	1
1	4050	711	0
1	4057	712	1
1	4060	712	0
1	4084	717	1
1	4084	717	0
1	4113	724	1
1	4113	724	0
1	4122	726	1
1	4122	726	0
1	4150	735	1
1	4150	735	0
1	4151	735	1
1	4157	736	0
1	4173	739	1
1	4173	739	0
1	4234	752	1
1	4234	752	0
1	4239	753	1
1	4240	753	2
1	4242	753	1
1	4248	754	0
1	4253	755	1
1	4255	755	0
1	4422	794	1
1	4422	794	0
1	4444	797	1
1	4444	797	0
1	4466	803	1
1	4466	803	0
1	4484	807	1
1	4484	807	0
1	4498	809	1
1	4498	809	0
1	4590	826	1
1	4590	826	0
1	4611	829	1
1	4611	829	0
1	4622	831	1
1	4622	831	0
1	4639	833	1
1	4639	833	0
1	4655	835	1
1	4655	835	0
1	4696	846	1
1	4696	846	0
1	4755	862	1
1	4755	862	0
1	4790	868	1
1	4790	868	0
1	4844	879	1
1	4844	879	0
1	4861	885	1
1	4861	885	0
1	4948	905	1
1	4948	905	0
1	4967	907	1
1	4967	907	0
1	4976	908	1
1	4979	908	0
1	5035	918	1
1	5035	918	0
1	5048	921	1
1	5048	921	0
1	5113	936	1
1	5113	936	0
1	5138	941	1
1	5138	941	0
1	5146	942	1
1	5148	942	0
1	5155	943	1
1	5157	943	0
1	5173	946	1
1	5173	946	0
1	5192	949	1
1	5192	949	0
1	5263	966	1
1	5263	966	0
1	5268	967	1
1	5270	967	0
1	5286	970	1
1	5286	970	0
1	5299	974	1
1	5299	974	0
1	5315	977	1
1	5315	977	0
1	5324	978	1
1	5326	978	0
1	5345	982	1
1	5345	982	0
1	5350	983	1
1	5352	983	0
1	5383	991	1
1	5383	991	0
1	5415	997	1
1	5415	997	0
1	5443	1006	1
1	5443	1006	0
1	5542	1020	1
1	5542	1020	0
1	5602	1029	1
1	5602	1029	0
1	5622	1031	1
1	5622	1031	0
1	5623	1031	1
1	5652	1035	0
1	5693	1048	1
1	5693	1048	0
1	5730	1059	1
1	5730	1059	0
1	5780	1067	1
1	5780	1067	0
1	5810	1075	1
1	5810	1075	0
1	5860	1084	1
1	5860	1084	0
1	5861	1084	1
1	5862	1084	2
1	5876	1085	1
1	5887	1086	0
1	5951	1097	1
1	5951	1097	0
1	5973	1103	1
1	5973	1103	0
1	5989	1106	1
1	5989	1106	0
1	6024	1112	1
1	6024	1112	0
1	6034	1113	1
1	6036	1113	0
1	6126	1133	1
1	6126	1133	0
1	6137	1135	1
1	6137	1135	0
1	6164	1141	1
1	6164	1141	0
1	6194	1146	1
1	6194	1146	0
1	6203	1148	1
1	6203	1148	0
1	6212	1149	1
1	6216	1149	0
1	6266	1157	1
1	6266	1157	0
1	6267	1157	1
1	6277	1158	0
1	6380	1184	1
1	6380	1184	0
1	6399	1187	1
1	6399	1187	0
1	6417	1190	1
1	6417	1190	0
1	6443	1194	1
1	6443	1194	0
1	6466	1198	1
1	6466	1198	0
1	6491	1202	1
1	6491	1202	0
1	6535	1214	1
1	6535	1214	0
1	6540	1215	1
1	6542	1215	0
1	6562	1220	1
1	6562	1220	0
1	6603	1228	1
1	6603	1228	0
1	6618	1230	1
1	6618	1230	0
1	6655	1237	1
1	6655	1237	0
1	6676	1239	1
1	6676	1239	0
1	6701	1242	1
1	6701	1242	0
1	6723	1245	1
1	6723	1245	0
1	6811	1262	1
1	6811	1262	0
1	6851	1269	1
1	6851	1269	0
1	6907	1282	1
1	6907	1282	0
1	6916	1284	1
1	6916	1284	0
1	6984	1303	1
1	6984	1303	0
1	6985	1303	1
1	6991	1304	0
1	7014	1309	1
1	7014	1309	0
1	7026	1310	1
1	7029	1310	0
1	7038	1311	1
1	7040	1311	0
1	7057	1313	1
1	7057	1313	0
1	7147	1328	1
1	7147	1328	0
1	7166	1330	1
1	7166	1330	0
1	7230	1341	1
1	7230	1341	0
1	7238	1342	1
1	7240	1342	0
1	7253	1345	1
1	7253	1345	0
1	7262	1347	1
1	7262	1347	0
1	7314	1358	1
1	7314	1358	0
1	7362	1367	1
1	7362	1367	0
1	7367	1368	1
1	7369	1368	0
1	7385	1372	1
1	7385	1372	0
1	7420	1379	1
1	7420	1379	0
1	7441	1381	1
1	7441	1381	0
1	7472	1385	1
1	7472	1385	0
1	7494	1389	1
1	7494	1389	0
1	7545	1398	1
1	7545	1398	0
1	7633	1417	1
1	7633	1417	0
1	7648	1420	1
1	7648	1420	0
1	7713	1432	1
1	7713	1432	0
1	7777	1444	1
1	7777	1444	0
1	7797	1449	1
1	7797	1449	0
1	7835	1458	1
1	7835	1458	0
1	7843	1459	1
1	7847	1459	0
1	7865	1461	1
1	7865	1461	0
1	7907	1470	1
1	7907	1470	0
1	7920	1473	1
1	7920	1473	0
1	7936	1476	1
1	7936	1476	0
1	7956	1481	1
1	7956	1481	0
1	7961	1482	1
1	7962	1482	2
1	7964	1482	1
1	7970	1483	0
1	7990	1488	1
1	7990	1488	0
1	7995	1489	1
1	7997	1489	0
1	8006	1491	1
1	8006	1491	0
1	8011	1492	1
1	8013	1492	0
1	8069	1506	1
1	8069	1506	0
1	8105	1513	1
1	8105	1513	0
1	8180	1524	1
1	8180	1524	0
1	8196	1526	1
1	8196	1526	0
1	8209	1528	1
1	8209	1528	0
1	8243	1537	1
1	8243	1537	0
1	8288	1547	1
1	8288	1547	0
1	8289	1547	1
1	8299	1548	0
1	8308	1549	1
1	8310	1549	0
1	8328	1552	1
1	8328	1552	0
1	8345	1558	1
1	8345	1558	0
1	8361	1563	1
1	8361	1563	0
1	8406	1576	1
1	8406	1576	0
1	8438	1582	1
1	8438	1582	0
1	8522	1606	1
1	8522	1606	0
1	8557	1611	1
1	8557	1611	0
1	8562	1612	1
1	8564	1612	0
1	8569	1613	1
1	8572	1613	0
1	8602	1621	1
1	8602	1621	0
1	8607	1622	1
1	8609	1622	0
1	8657	1631	1
1	8657	1631	0
1	8680	1635	1
1	8680	1635	0
1	8697	1637	1
1	8697	1637	0
1	8733	1645	1
1	8733	1645	0
1	8753	1649	1
1	8753	1649	0
1	8754	1649	1
1	8764	1650	0
1	8791	1653	1
1	8791	1653	0
1	8814	1657	1
1	8814	1657	0
1	8826	1659	1
1	8826	1659	0
1	8940	1684	1
1	8940	1684	0
1	8958	1686	1
1	8958	1686	0
1	9017	1694	1
1	9017	1694	0
1	9053	1705	1
1	9053	1705	0
1	9110	1715	1
1	9110	1715	0
1	9160	1725	1
1	9160	1725	0
1	9177	1727	1
1	9177	1727	0
1	9187	1728	1
1	9189	1728	0
1	9196	1729	1
1	9198	1729	0
1	9281	1742	1
1	9281	1742	0
1	9302	1744	1
1	9302	1744	0
1	9332	1748	1
1	9332	1748	0
1	9391	1761	1
1	9391	1761	0
1	9398	1762	1
1	9399	1762	2
1	9403	1762	1
1	9414	1763	0
1	9421	1764	1
1	9426	1764	0
1	9458	1771	1
1	9458	1771	0
1	9474	1774	1
1	9474	1774	0
1	9475	1774	1
1	9481	1775	0
1	9504	1784	1
1	9504	1784	0
1	9572	1794	1
1	9572	1794	0
1	9597	1798	1
1	9597	1798	0
1	9638	1806	1
1	9638	1806	0
1	9674	1811	1
1	9674	1811	0
1	9705	1815	1
1	9705	1815	0
1	9738	1822	1
1	9738	1822	0
1	9748	1823	1
1	9750	1823	0
1	9761	1825	1
1	9761	1825	0
1	9769	1826	1
1	9771	1826	0
1	9823	1836	1
1	9823	1836	0
1	9860	1842	1
1	9860	1842	0
1	9905	1852	1
1	9905	1852	0
1	9910	1853	1
1	9912	1853	0
1	9930	1857	1
1	9930	1857	0
1	9964	1864	1
1	9964	1864	0
1	9984	1869	1
1	9984	1869	0
1	10002	1871	1
1	10002	1871	0
1	10039	1877	1
1	10039	1877	0
1	10057	1879	1
1	10057	1879	0
1	10058	1879	1
1	10068	1880	2
1	10070	1880	1
1	10077	1881	2
1	10079	1881	1
1	10085	1882	0
1	10103	1885	1
1	10113	1886	0
1	10138	1893	1
1	10138	1893	0
1	10157	1900	1
1	10157	1900	0
1	10158	1900	1
1	10164	1901	0
1	10184	1906	1
1	10184	1906	0
1	10198	1909	1
1	10198	1909	0
1	10232	1915	1
1	10232	1915	0
1	10258	1923	1
1	10258	1923	0
1	10269	1926	1
1	10269	1926	0
1	10303	1936	1
1	10303	1936	0
1	10312	1937	1
1	10315	1937	0
1	10337	1940	1
1	10337	1940	0
1	10373	1949	1
1	10373	1949	0
1	10425	1957	1
1	10425	1957	0
1	10426	1957	1
1	10436	1958	0
1	10447	1960	1
1	10447	1960	0
1	10452	1961	1
1	10454	1961	0
1	10502	1975	1
1	10502	1975	0
1	10567	1986	1
1	10567	1986	0
1	10686	2012	1
1	10686	2012	0
1	10691	2013	1
1	10693	2013	0
1	10704	2016	1
1	10704	2016	0
1	10709	2017	1
1	10710	2017	2
1	10712	2017	1
1	10717	2018	2
1	10719	2018	1
1	10724	2019	2
1	10726	2019	1
1	10731	2020	2
1	10733	2020	1
1	10741	2021	0
1	10788	2028	1
1	10788	2028	0
1	10799	2031	1
1	10799	2031	0
1	10925	2064	1
1	10925	2064	0
1	10944	2068	1
1	10944	2068	0
1	10962	2073	1
1	10962	2073	0
1	11051	2104	1
1	11051	2104	0
1	11130	2117	1
1	11130	2117	0
1	11162	2122	1
1	11162	2122	0
1	11163	2122	1
1	11168	2123	2
1	11170	2123	1
1	11175	2124	2
1	11177	2124	1
1	11183	2125	0
1	11194	2128	1
1	11194	2128	0
1	11229	2139	1
1	11229	2139	0
1	11285	2147	1
1	11285	2147	0
1	11339	2155	1
1	11339	2155	0
1	11340	2155	1
1	11354	2156	0
1	11401	2162	1
1	11401	2162	0
1	11402	2162	1
1	11413	2163	2
1	11416	2163	1
1	11425	2164	2
1	11427	2164	1
1	11438	2165	0
1	11447	2166	1
1	11449	2166	0
1	11467	2168	1
1	11467	2168	0
1	11491	2171	1
1	11491	2171	0
1	11500	2172	1
1	11504	2172	0
1	11513	2173	1
1	11517	2173	0
1	11537	2175	1
1	11537	2175	0
1	11538	2175	1
1	11550	2176	0
1	11615	2185	1
1	11615	2185	0
1	11660	2191	1
1	11660	2191	0
1	11739	2203	1
1	11739	2203	0
1	11753	2205	1
1	11753	2205	0
1	11761	2206	1
1	11763	2206	0
1	11810	2216	1
1	11810	2216	0
1	11815	2217	1
1	11827	2220	0
1	11850	2223	1
1	11850	2223	0
1	11855	2224	1
1	11856	2224	2
1	11858	2224	1
1	11864	2225	0
1	11876	2227	1
1	11876	2227	0
1	11892	2229	1
1	11892	2229	0
1	11915	2233	1
1	11915	2233	0
1	11931	2236	1
1	11931	2236	0
1	11932	2236	1
1	11938	2237	0
1	11953	2242	1
1	11953	2242	0
1	11958	2243	1
1	11961	2243	0
1	11977	2245	1
1	11977	2245	0
1	12034	2258	1
1	12034	2258	0
1	12067	2262	1
1	12067	2262	0
1	12082	2264	1
1	12082	2264	0
1	12102	2267	1
1	12102	2267	0
1	12112	2268	1
1	12114	2268	0
1	12224	2296	1
1	12224	2296	0
1	12283	2307	1
1	12283	2307	0
1	12305	2311	1
1	12305	2311	0
1	12324	2313	1
1	12324	2313	0
1	12333	2314	1
1	12338	2314	0
1	12363	2317	1
1	12363	2317	0
1	12387	2320	1
1	12387	2320	0
1	12398	2321	1
1	12399	2321	2
1	12401	2321	1
1	12411	2322	0
1	12422	2324	1
1	12422	2324	0
1	12461	2336	1
1	12461	2336	0
1	12470	2338	1
1	12470	2338	0
1	12521	2349	1
1	12521	2349	0
1	12531	2350	1
1	12539	2351	2
1	12547	2353	1
1	12555	2354	2
1	12557	2354	1
1	12566	2355	0
1	12590	2358	1
1	12590	2358	0
1	12600	2359	1
1	12603	2359	0
1	12656	2369	1
1	12656	2369	0
1	12663	2370	1
1	12666	2370	0
1	12693	2374	1
1	12693	2374	0
1	12705	2376	1
1	12705	2376	0
1	12723	2379	1
1	12723	2379	0
1	12736	2383	1
1	12736	2383	0
1	12750	2386	1
1	12750	2386	0
1	12763	2389	1
1	12763	2389	0
1	12785	2395	1
1	12785	2395	0
1	12856	2411	1
1	12856	2411	0
1	12865	2412	1
1	12867	2412	0
1	12881	2414	1
1	12881	2414	0
1	12892	2416	1
1	12892	2416	0
1	12903	2419	1
1	12903	2419	0
1	12912	2421	1
1	12912	2421	0
1	12929	2423	1
1	12929	2423	0
1	13024	2442	1
1	13024	2442	0
1	13069	2452	1
1	13069	2452	0
1	13078	2454	1
1	13078	2454	0
1	13093	2459	1
1	13093	2459	0
1	13146	2473	1
1	13146	2473	0
1	13181	2478	1
1	13181	2478	0
1	13204	2482	1
1	13204	2482	0
1	13227	2486	1
1	13227	2486	0
1	13285	2500	1
1	13285	2500	0
1	13293	2502	1
1	13302	2504	0
1	13328	2511	1
1	13328	2511	0
1	13361	2516	1
1	13361	2516	0
1	13419	2525	1
1	13419	2525	0
1	13471	2540	1
1	13471	2540	0
1	13488	2542	1
1	13488	2542	0
1	13495	2543	1
1	13498	2543	0
1	13521	2546	1
1	13521	2546	0
1	13522	2546	1
1	13532	2547	2
1	13534	2547	1
1	13543	2548	0
1	13556	2550	1
1	13556	2550	0
1	13565	2552	1
1	13565	2552	0
1	13570	2553	1
1	13572	2553	0
1	13577	2554	1
1	13578	2554	2
1	13580	2554	1
1	13586	2555	0
1	13597	2558	1
1	13597	2558	0
1	13635	2563	1
1	13635	2563	0
1	13650	2567	1
1	13650	2567	0
1	13655	2568	1
1	13658	2568	0
1	13665	2569	1
1	13669	2569	0
1	13713	2577	1
1	13713	2577	0
1	13714	2577	1
1	13722	2578	0
1	13727	2579	1
1	13729	2579	0
1	13745	2583	1
1	13745	2583	0
1	13774	2589	1
1	13774	2589	0
1	13790	2593	1
1	13790	2593	0
1	13879	2610	1
1	13879	2610	0
1	13880	2610	1
1	13888	2611	0
1	13897	2613	1
1	13897	2613	0
1	13933	2621	1
1	13933	2621	0
1	13941	2623	1
1	13952	2625	0
1	13974	2631	1
1	13974	2631	0
1	13985	2634	1
1	13985	2634	0
1	13996	2637	1
1	13996	2637	0
1	14086	2657	1
1	14086	2657	0
1	14095	2659	1
1	14095	2659	0
1	14100	2660	1
1	14102	2660	0
1	14201	2675	1
1	14201	2675	0
1	14220	2679	1
1	14220	2679	0
1	14264	2691	1
1	14264	2691	0
1	14269	2692	1
1	14271	2692	0
1	14280	2694	1
1	14280	2694	0
1	14301	2698	1
1	14301	2698	0
1	14315	2700	1
1	14315	2700	0
1	14359	2711	1
1	14359	2711	0
1	14371	2713	1
1	14371	2713	0
1	14372	2713	1
1	14379	2714	2
1	14381	2714	1
1	14387	2715	0
1	14415	2720	1
1	14415	2720	0
1	14422	2721	1
1	14424	2721	0
1	14435	2724	1
1	14435	2724	0
1	14470	2730	1
1	14470	2730	0
1	14486	2732	1
1	14486	2732	0
1	14533	2744	1
1	14533	2744	0
1	14552	2750	1
1	14552	2750	0
1	14566	2752	1
1	14566	2752	0
1	14601	2756	1
1	14601	2756	0
1	14602	2756	1
1	14611	2757	2
1	14613	2757	1
1	14622	2758	2
1	14624	2758	1
1	14634	2759	0
1	14675	2767	1
1	14675	2767	0
1	14697	2772	1
1	14697	2772	0
1	14698	2772	1
1	14704	2773	0
1	14713	2775	1
1	14713	2775	0
1	14770	2787	1
1	14770	2787	0
1	14771	2787	1
1	14779	2788	0
1	14798	2793	1
1	14798	2793	0
1	14851	2800	1
1	14851	2800	0
1	14873	2805	1
1	14873	2805	0
1	14890	2811	1
1	14890	2811	0
1	14913	2820	1
1	14913	2820	0
1	14930	2824	1
1	14930	2824	0
1	14966	2830	1
1	14966	2830	0
1	14967	2830	1
1	14975	2831	0
1	14997	2838	1
1	14997	2838	0
1	15057	2855	1
1	15057	2855	0
1	15066	2856	1
1	15068	2856	0
1	15093	2860	1
1	15093	2860	0
1	15197	2877	1
1	15197	2877	0
1	15220	2881	1
1	15220	2881	0
1	15247	2887	1
1	15247	2887	0
1	15252	2888	1
1	15256	2888	0
1	15275	2891	1
1	15275	2891	0
1	15284	2893	1
1	15284	2893	0
1	15285	2893	1
1	15291	2894	0
1	15339	2903	1
1	15339	2903	0
1	15356	2905	1
1	15356	2905	0
1	15363	2906	1
1	15365	2906	0
1	15445	2921	1
1	15445	2921	0
1	15458	2923	1
1	15458	2923	0
1	15474	2926	1
1	15478	2927	0
1	15500	2931	1
1	15500	2931	0
1	15519	2935	1
1	15519	2935	0
1	15573	2943	1
1	15573	2943	0
1	15594	2945	1
1	15594	2945	0
1	15618	2948	1
1	15618	2948	0
1	15652	2954	1
1	15652	2954	0
1	15660	2955	1
1	15662	2955	0
1	15740	2974	1
1	15740	2974	0
1	15747	2975	1
1	15749	2975	0
1	15808	2987	1
1	15808	2987	0
1	15809	2987	1
1	15816	2988	0
1	15853	2997	1
1	15853	2997	0
1	15889	3005	1
1	15889	3005	0
1	15910	3013	1
1	15910	3013	0
1	15946	3021	1
1	15946	3021	0
1	15992	3030	1
1	15992	3030	0
1	16023	3042	1
1	16023	3042	0
1	16062	3047	1
1	16062	3047	0
1	16071	3048	1
1	16074	3048	0
1	16083	3049	1
1	16084	3049	2
1	16086	3049	1
1	16093	3050	2
1	16095	3050	1
1	16101	3051	0
1	16123	3054	1
1	16123	3054	0
1	16141	3056	1
1	16141	3056	0
1	16150	3057	1
1	16153	3057	0
1	16208	3067	1
1	16208	3067	0
1	16217	3068	1
1	16219	3068	0
1	16302	3089	1
1	16302	3089	0
1	16319	3095	1
1	16319	3095	0
1	16348	3100	1
1	16348	3100	0
1	16358	3101	1
1	16361	3101	0
1	16384	3107	1
1	16384	3107	0
1	16389	3108	1
1	16391	3108	0
1	16437	3116	1
1	16437	3116	0
1	16456	3118	1
1	16456	3118	0
1	16479	3122	1
1	16479	3122	0
1	16496	3124	1
1	16496	3124	0
1	16558	3139	1
1	16558	3139	0
1	16559	3139	1
1	16565	3140	0
1	16660	3157	1
1	16660	3157	0
1	16670	3158	1
1	16671	3158	2
1	16673	3158	1
1	16683	3159	0
1	16692	3160	1
1	16695	3160	0
1	16752	3171	1
1	16752	3171	0
1	16816	3183	1
1	16816	3183	0
1	16821	3184	1
1	16823	3184	0
1	16865	3192	1
1	16865	3192	0
1	16876	3193	1
1	16878	3193	0
1	16922	3199	1
1	16922	3199	0
1	16933	3200	1
1	16935	3200	0
1	16944	3201	1
1	16946	3201	0
1	16955	3202	1
1	16957	3202	0
1	17031	3219	1
1	17031	3219	0
1	17041	3220	1
1	17043	3220	0
1	17102	3236	1
1	17102	3236	0
1	17107	3237	1
1	17110	3237	0
1	17126	3239	1
1	17126	3239	0
1	17145	3245	1
1	17145	3245	0
1	17154	3247	1
1	17154	3247	0
1	17221	3260	1