version 3
run Experimentos-98-20260514-09:20:59-3911
attr configname Experimentos
attr datetime 20260514-09:20:59
attr datetimef 20260514-092059
attr experiment Experimentos
attr inifile TwoQueues.ini
attr iterationvars "$p=0.6, $q=0.2, $Y=20, $m=2"
attr iterationvarsd p=0.6/q=0.2/Y=20/m=2
attr iterationvarsf p=0.6,q=0.2,Y=20,m=2-
attr measurement "$p=0.6, $q=0.2, $Y=20, $m=2"
attr network TwoQueues
attr processid 3911
attr repetition 18
attr replication #18
attr resultdir results
attr runnumber 98
attr seedset 98
itervar Y 20
itervar m 2
itervar p 0.6
itervar q 0.2
config description "Barrido completo de parámetros Proyecto 12"
config **.source1.p 0.6
config **.source1.q 0.2
config **.source2.p 0.6
config **.source2.q 0.2
config **.serverWithMaintenance.Y 20
config **.serverWithMaintenance.m 2
config network TwoQueues
config cpu-time-limit 5000s
config sim-time-limit 5000s
config warmup-period 400s
config repeat 20
config output-scalar-file results/Experimentos-p=0.6,q=0.2,Y=20,m=2--#18.sca
config output-vector-file results/Experimentos-p=0.6,q=0.2,Y=20,m=2--#18.vec
config **.vector-recording true

vector 0 TwoQueues.serverWithMaintenance residenceTime2:vector ETV
attr recordingmode vector
attr source delay2
attr title "Residence Time Class 2"
vector 1 TwoQueues.queue2 queueLengthStats:vector ETV
attr recordingmode vector
attr source qlen
attr title "Average Queue Length"
vector 2 TwoQueues.queue1 queueLengthStats:vector ETV
attr recordingmode vector
attr source qlen
attr title "Average Queue Length"
vector 3 TwoQueues.server residenceTime1:vector ETV
attr recordingmode vector
attr source delay1
attr title "Residence Time Class 1"
vector 4 TwoQueues.server throughputStats1:vector ETV
attr recordingmode vector
attr source throughput1
attr title "Throughput Class 1"
0	2664	402	2
0	2675	403	2
0	2702	406	1
0	2735	410	1
0	2789	419	1
0	2814	424	1
0	2854	430	1
0	2888	433	1
0	2931	439	1
0	2961	443	1
0	2981	445	1
0	2999	447	1
0	3010	448	1
0	3030	451	1
0	3085	462	1
0	3131	471	1
0	3158	476	1
0	3190	482	1
0	3243	492	1
0	3249	493	2
0	3275	496	5
0	3287	497	6
0	3297	498	4
0	3308	499	3
0	3319	500	2
0	3367	509	1
0	3378	510	2
0	3416	515	1
0	3491	526	1
0	3501	527	1
0	3518	529	1
0	3536	532	1
0	3582	539	1
0	3612	544	1
0	3892	584	1
0	3928	588	1
0	3939	589	2
0	3949	590	2
0	3978	594	1
0	3989	595	1
0	4013	598	3
0	4036	601	1
0	4059	604	1
0	4102	612	1
0	4141	620	1
0	4152	621	1
0	4162	622	1
0	4171	624	1
0	4208	629	1
0	4232	632	1
0	4272	641	1
0	4286	644	1
0	4324	652	1
0	4345	656	1
0	4355	657	1
0	4483	680	1
0	4507	684	1
0	4513	685	2
0	4544	692	1
0	4554	693	1
0	4580	696	2
0	4594	697	1
0	4611	699	1
0	4624	700	1
0	4644	702	1
0	4683	707	1
0	4701	709	1
0	4735	713	1
0	4777	719	1
0	4800	723	1
0	4827	729	1
0	4863	736	1
0	4918	749	1
0	4925	750	2
0	4935	751	2
0	4946	752	1
0	5026	763	1
0	5032	764	2
0	5048	767	1
0	5065	770	1
0	5090	773	4
0	5102	774	3
0	5113	775	4
0	5122	776	2
0	5191	787	1
0	5277	802	1
0	5289	803	1
0	5301	804	1
0	5313	805	2
0	5419	827	1
0	5426	828	1
0	5435	830	1
0	5445	831	1
0	5463	833	1
0	5474	834	1
0	5480	835	2
0	5501	838	1
0	5526	843	1
0	5586	857	1
0	5622	861	1
0	5667	869	1
0	5685	871	1
0	5695	872	1
0	5704	874	1
0	5721	879	1
0	5748	886	1
0	5757	888	1
0	5768	889	1
0	5787	892	1
0	5797	893	1
0	5836	898	1
0	5874	904	1
0	5911	912	1
0	5918	913	2
0	5927	914	2
0	5940	915	1
0	5955	917	1
0	5988	925	1
0	6035	937	1
0	6055	941	1
0	6103	947	1
0	6120	949	1
0	6145	954	1
0	6173	958	1
0	6183	960	1
0	6189	961	2
0	6227	966	1
0	6245	968	1
0	6271	971	1
0	6283	972	1
0	6337	979	1
0	6373	983	1
0	6406	987	1
0	6514	1002	1
0	6526	1003	1
0	6578	1013	1
0	6635	1029	1
0	6779	1053	1
0	6791	1054	1
0	6809	1056	1
0	6837	1059	2
0	6847	1060	2
0	6869	1063	1
0	6902	1071	1
0	6958	1078	1
0	6998	1085	1
0	7012	1087	1
0	7032	1089	1
0	7079	1095	1
0	7098	1097	1
0	7117	1099	1
0	7128	1100	1
0	7195	1108	1
0	7248	1115	1
0	7272	1118	1
0	7304	1122	1
0	7314	1123	2
0	7360	1131	1
0	7396	1140	1
0	7405	1141	2
0	7444	1146	1
0	7466	1150	1
0	7585	1173	1
0	7636	1181	1
0	7656	1186	1
0	7687	1193	1
0	7697	1194	2
0	7729	1198	1
0	7740	1199	1
0	7759	1201	1
0	7770	1202	2
0	7784	1205	1
0	7820	1213	1
0	7827	1214	1
0	7884	1225	1
0	7913	1232	1
0	7936	1235	1
0	7967	1242	1
0	7985	1244	1
0	8001	1246	1
0	8046	1254	1
0	8118	1269	1
0	8136	1273	1
0	8160	1277	1
0	8166	1278	2
0	8186	1283	1
0	8253	1294	1
0	8311	1305	1
0	8320	1306	2
0	8331	1308	1
0	8358	1314	1
0	8390	1320	1
0	8423	1328	1
0	8458	1334	1
0	8495	1340	1
0	8537	1350	1
0	8557	1352	1
0	8574	1354	1
0	8584	1355	2
0	8620	1363	1
0	8650	1366	2
0	8712	1373	1
0	8725	1374	2
0	8742	1376	1
0	8822	1387	1
0	8845	1389	1
0	8881	1394	1
0	8908	1397	1
0	8919	1398	1
0	8999	1409	1
0	9011	1410	1
0	9029	1412	1
0	9042	1413	1
0	9099	1420	1
0	9174	1430	1
0	9238	1439	1
0	9262	1442	1
0	9342	1453	1
0	9352	1454	2
0	9379	1458	1
0	9437	1469	1
0	9449	1471	1
0	9460	1472	1
0	9471	1473	2
0	9487	1474	1
0	9510	1477	1
0	9528	1479	1
0	9578	1487	1
0	9604	1490	1
0	9645	1495	1
0	9654	1496	2
0	9661	1497	1
0	9724	1512	1
0	9744	1516	1
0	9785	1522	1
0	9825	1527	1
0	9880	1535	1
0	9916	1542	1
0	9947	1546	1
0	9956	1547	2
0	10034	1558	1
0	10051	1560	1
0	10067	1562	1
0	10076	1564	1
0	10124	1573	1
0	10133	1575	1
0	10191	1589	1
0	10204	1593	1
0	10236	1599	1
0	10248	1602	1
0	10259	1603	2
0	10270	1604	2
0	10321	1613	1
0	10351	1619	1
0	10358	1620	1
0	10449	1635	1
0	10487	1640	1
0	10523	1646	1
0	10548	1650	1
0	10559	1652	1
0	10580	1655	2
0	10588	1656	3
0	10595	1657	2
0	10605	1658	3
0	10617	1659	3
0	10627	1660	2
0	10645	1662	1
0	10657	1663	1
0	10676	1667	1
0	10686	1668	2
0	10695	1669	2
0	10758	1681	1
0	10785	1684	1
0	10813	1688	1
0	10831	1691	1
0	10883	1702	1
0	10959	1713	1
0	11033	1727	1
0	11136	1742	1
0	11161	1746	1
0	11175	1749	3
0	11182	1750	3
0	11188	1751	4
0	11197	1752	3
0	11209	1753	1
0	11250	1760	1
0	11377	1778	1
0	11394	1780	1
0	11405	1781	1
0	11438	1785	1
0	11469	1788	1
0	11512	1794	1
0	11523	1795	1
0	11560	1800	1
0	11571	1802	1
0	11600	1806	1
0	11611	1807	1
0	11676	1817	1
0	11697	1820	1
0	11713	1823	1
0	11766	1833	1
0	11776	1834	2
0	11790	1836	1
0	11972	1863	1
0	12000	1868	1
0	12070	1879	1
0	12105	1883	1
0	12128	1886	1
0	12165	1890	1
0	12218	1897	1
0	12248	1900	1
0	12420	1927	1
0	12454	1933	1
0	12523	1945	1
0	12559	1949	1
0	12653	1971	1
0	12681	1976	1
0	12728	1986	1
0	12744	1988	1
0	12754	1989	1
0	12775	1993	1
0	12785	1994	1
0	12803	1996	1
0	12829	1999	1
0	12874	2005	1
0	12918	2012	1
0	12934	2015	1
0	12956	2018	1
0	12988	2023	1
0	13006	2026	1
0	13016	2027	1
0	13140	2050	1
0	13158	2052	1
0	13195	2057	1
0	13226	2061	1
0	13236	2062	1
0	13320	2073	1
0	13340	2075	1
0	13353	2076	1
0	13363	2077	2
0	13401	2082	1
0	13412	2083	1
0	13428	2085	1
0	13445	2087	1
0	13499	2098	1
0	13509	2099	1
0	13535	2105	1
0	13559	2109	1
0	13575	2111	1
0	13638	2125	1
0	13648	2126	1
0	13747	2139	1
0	13758	2140	2
0	13790	2144	1
0	13831	2149	1
0	13844	2150	2
0	13854	2151	2
0	13888	2155	1
0	13900	2156	1
0	13910	2157	2
0	13944	2161	1
0	13962	2163	1
0	13973	2164	1
0	13988	2165	1
0	14065	2176	1
0	14103	2181	1
0	14143	2192	1
0	14201	2201	1
0	14238	2206	1
0	14261	2209	1
0	14272	2210	1
0	14294	2212	1
0	14306	2213	1
0	14351	2220	1
0	14414	2229	1
0	14498	2244	1
0	14507	2245	2
0	14518	2247	1
0	14594	2257	1
0	14638	2263	1
0	14657	2266	3
0	14667	2267	1
0	14676	2268	1
0	14695	2271	1
0	14758	2283	1
0	14768	2284	1
0	14791	2288	1
0	14815	2291	1
0	14834	2293	1
0	14885	2302	1
0	14891	2303	2
0	14908	2306	1
0	14921	2307	2
0	14949	2310	1
0	15049	2324	1
0	15088	2329	1
0	15098	2330	2
0	15110	2331	1
0	15121	2332	2
0	15170	2339	1
0	15249	2354	1
0	15271	2360	1
0	15282	2361	1
0	15297	2363	1
0	15334	2370	1
0	15346	2371	1
0	15355	2372	2
0	15369	2374	1
0	15377	2375	1
0	15386	2376	2
0	15398	2377	1
0	15411	2379	1
0	15421	2380	1
0	15430	2382	1
0	15441	2385	1
0	15455	2387	1
0	15515	2396	1
0	15603	2408	1
0	15647	2414	1
0	15795	2445	1
0	15821	2448	2
0	15830	2449	2
0	15846	2452	1
0	15874	2457	1
0	15907	2465	1
0	15932	2468	1
0	15943	2469	1
0	15990	2475	1
0	16063	2490	1
0	16077	2491	1
0	16087	2492	2
0	16132	2500	1
0	16144	2501	1
0	16157	2502	2
0	16180	2505	1
0	16206	2509	1
0	16212	2510	2
0	16220	2511	1
0	16227	2512	2
0	16234	2513	2
0	16259	2516	4
0	16271	2517	4
0	16282	2518	3
0	16291	2519	2
0	16310	2525	1
0	16323	2526	1
0	16343	2530	1
0	16365	2536	1
0	16408	2545	1
0	16426	2549	1
0	16444	2553	1
0	16502	2567	1
0	16515	2570	1
0	16553	2576	1
0	16578	2579	1
0	16673	2600	1
0	16704	2604	1
0	16745	2611	1
0	16764	2614	1
0	16839	2627	1
0	16868	2632	1
0	16877	2634	1
0	16915	2639	1
0	16924	2640	2
0	16939	2645	1
0	16970	2652	1
0	16985	2653	1
0	16995	2654	2
0	17024	2660	1
0	17042	2664	1
0	17049	2665	1
0	17056	2666	1
0	17071	2671	1
0	17078	2672	1
0	17118	2678	1
0	17127	2679	2
0	17134	2680	1
0	17161	2686	1
0	17191	2692	1
0	17200	2693	2
0	17227	2696	2
0	17239	2697	1
0	17251	2698	1
0	17353	2713	1
0	17363	2714	1
0	17398	2720	1
0	17430	2724	1
0	17453	2728	1
0	17503	2738	1
0	17531	2742	1
0	17601	2756	1
0	17619	2758	1
0	17637	2760	1
0	17687	2767	1
0	17698	2768	1
0	17725	2771	1
0	17769	2778	1
0	17810	2785	1
0	17826	2788	1
0	17842	2791	1
0	17854	2794	3
0	17919	2803	1
0	17982	2812	1
0	18018	2817	1
0	18042	2820	1
0	18048	2821	2
0	18112	2833	1
0	18123	2835	1
0	18146	2840	1
0	18164	2843	1
0	18178	2845	1
0	18190	2846	1
0	18202	2847	1
0	18214	2849	1
0	18279	2860	1
0	18290	2861	1
0	18300	2862	1
0	18316	2865	1
0	18323	2866	1
0	18357	2873	1
0	18378	2877	1
0	18442	2887	1
0	18451	2888	2
0	18464	2890	1
0	18474	2891	1
0	18527	2899	1
0	18582	2910	1
0	18619	2916	1
0	18700	2934	1
0	18741	2942	1
0	18784	2947	1
0	18884	2965	1
0	18925	2973	1
0	18976	2981	1
0	18986	2982	1
0	19001	2987	1
0	19020	2990	1
0	19040	2993	1
0	19083	3003	1
0	19099	3006	1
0	19127	3010	1
0	19138	3011	1
0	19170	3015	1
0	19214	3021	1
0	19299	3035	1
0	19343	3041	1
0	19398	3048	1
0	19416	3050	1
0	19437	3053	1
0	19469	3057	1
0	19495	3060	1
0	19519	3063	1
0	19539	3068	1
0	19564	3074	1
0	19584	3077	1
0	19602	3082	1
0	19626	3085	1
0	19646	3089	1
0	19655	3091	1
0	19668	3095	1
0	19685	3098	3
0	19696	3099	1
0	19704	3100	2
0	19734	3104	1
0	19744	3105	1
0	19778	3112	1
0	19812	3116	1
0	19829	3118	1
0	19841	3119	1
0	19993	3142	1
0	20043	3150	1
0	20072	3155	1
0	20103	3159	1
0	20112	3160	2
0	20124	3161	1
0	20143	3163	1
0	20159	3165	1
0	20418	3212	1
0	20484	3221	1
0	20494	3222	2
0	20524	3225	2
0	20566	3231	1
0	20606	3237	1
0	20620	3238	1
0	20632	3239	1
0	20717	3251	1
0	20728	3252	1
0	20812	3264	1
0	20841	3269	1
0	20853	3270	1
0	20888	3278	1
0	20940	3284	1
0	20964	3287	1
0	21035	3296	1
0	21053	3298	1
0	21101	3304	1
0	21124	3307	1
0	21137	3308	1
0	21195	3315	1
0	21228	3319	1
0	21253	3322	4
0	21263	3323	4
0	21292	3326	1
0	21305	3327	1
0	21355	3334	1
0	21365	3335	2
0	21421	3350	1
0	21432	3352	1
0	21443	3353	1
0	21452	3354	2
0	21581	3374	1
0	21595	3375	2
0	21613	3377	1
0	21649	3382	1
0	21660	3383	1
0	21673	3384	1
0	21759	3400	1
0	21779	3403	1
0	21821	3408	1
0	21834	3409	1
0	21864	3412	2
0	21876	3413	1
0	21910	3417	1
0	21921	3418	2
0	21931	3419	2
0	21943	3420	1
0	21962	3422	1
0	21995	3426	1
0	22028	3430	1
0	22073	3436	1
0	22114	3443	1
0	22123	3444	2
0	22135	3445	1
0	22162	3449	1
0	22202	3455	1
0	22331	3476	1
0	22369	3481	1
0	22418	3488	1
0	22436	3492	1
0	22469	3500	1
0	22498	3505	1
0	22563	3519	1
0	22608	3525	1
0	22625	3527	1
0	22636	3528	2
0	22674	3536	1
0	22691	3537	1
0	22702	3538	1
0	22783	3549	1
0	22877	3563	1
0	22915	3571	1
0	22924	3573	1
0	22947	3577	1
0	22970	3580	1
0	23001	3585	1
0	23021	3589	1
0	23031	3590	1
0	23057	3593	1
0	23068	3594	1
0	23114	3603	1
0	23132	3606	3
0	23138	3607	3
0	23167	3614	1
0	23207	3624	1
0	23243	3632	1
0	23252	3634	1
0	23275	3639	1
0	23311	3644	1
0	23391	3655	1
0	23412	3658	1
0	23476	3669	1
0	23525	3676	1
0	23544	3678	1
0	23584	3684	1
0	23643	3692	1
0	23666	3695	1
0	23678	3697	1
0	23708	3702	1
0	23720	3703	2
0	23764	3709	1
0	23799	3717	1
0	23806	3718	1
0	23816	3719	1
0	23840	3725	1
0	23865	3728	1
0	23908	3736	1
0	23917	3737	2
0	23997	3753	1
0	24203	3787	1
0	24314	3803	1
0	24323	3804	2
0	24340	3809	1
0	24381	3814	1
0	24443	3822	1
0	24499	3831	1
0	24520	3834	1
0	24530	3835	1
0	24548	3839	1
0	24555	3840	1
0	24592	3846	1
0	24616	3849	2
0	24630	3851	1
0	24640	3852	1
0	24661	3856	1
0	24673	3857	2
0	24685	3858	2
0	24712	3862	1
0	24813	3878	1
0	24850	3883	1
0	24861	3884	1
0	24877	3888	1
0	24924	3897	1
0	24967	3903	1
0	24977	3904	1
0	24990	3905	1
0	25013	3911	1
0	25024	3914	1
0	25041	3916	1
0	25080	3924	1
0	25090	3925	2
0	25130	3930	1
0	25155	3934	1
0	25162	3935	1
0	25171	3937	1
0	25180	3939	1
0	25264	3955	1
0	25274	3956	1
0	25301	3961	1
0	25338	3966	1
0	25348	3967	2
0	25369	3970	1
0	25390	3973	1
0	25439	3984	1
0	25471	3988	1
0	25509	3995	1
0	25531	3998	1
0	25540	3999	2
0	25561	4002	1
0	25622	4015	1
0	25629	4016	1
0	25674	4024	1
0	25692	4026	1
0	25829	4048	1
0	25866	4058	1
0	25887	4062	1
0	25935	4076	1
0	25994	4090	1
0	26004	4091	2
0	26089	4107	1
0	26109	4109	1
0	26149	4114	1
0	26236	4126	1
0	26383	4150	1
0	26420	4155	1
0	26499	4172	1
0	26511	4173	1
0	26538	4177	1
0	26545	4178	2
0	26551	4179	2
0	26603	4189	1
0	26697	4209	1
0	26733	4217	1
0	26744	4218	1
0	26779	4225	1
0	26805	4229	1
0	26833	4232	1
0	26846	4233	1
0	26865	4235	1
0	26923	4243	1
0	27011	4260	1
0	27070	4268	1
0	27081	4269	1
0	27146	4280	1
0	27169	4284	1
0	27189	4286	1
0	27200	4287	1
0	27244	4293	1
0	27284	4300	1
0	27305	4303	1
0	27316	4304	1
0	27364	4310	1
0	27587	4345	1
0	27601	4346	1
0	27611	4347	2
0	27622	4348	1
0	27656	4352	1
0	27674	4354	1
0	27819	4374	1
0	27844	4377	1
0	27953	4398	1
0	27976	4402	1
0	28035	4415	1
0	28062	4420	1
0	28081	4423	1
0	28110	4426	1
0	28120	4427	2
0	28185	4435	1
0	28224	4440	1
0	28278	4447	1
0	28320	4453	1
0	28352	4457	1
0	28366	4460	1
0	28386	4465	1
0	28422	4473	1
0	28431	4475	1
0	28445	4477	1
0	28456	4480	1
0	28486	4485	1
0	28515	4488	1
0	28549	4492	1
0	28603	4500	1
0	28668	4511	1
0	28701	4514	1
0	28738	4519	1
0	28795	4527	1
0	28820	4530	1
0	28850	4534	1
0	28856	4535	2
0	28891	4542	1
0	28901	4543	2
0	28919	4546	4
0	28942	4549	1
0	28981	4557	1
0	29009	4562	1
0	29071	4571	1
0	29087	4574	1
0	29109	4579	1
0	29140	4583	1
0	29179	4591	1
0	29187	4592	1
0	29198	4593	2
0	29221	4597	1
0	29231	4598	1
0	29240	4599	1
0	29264	4602	1
0	29287	4605	1
0	29307	4610	1
0	29380	4625	1
0	29418	4633	1
0	29455	4638	1
0	29509	4646	1
0	29537	4649	1
0	29587	4657	1
0	29596	4659	1
0	29619	4662	1
0	29661	4670	1
0	29672	4671	1
0	29691	4674	1
0	29707	4677	1
0	29733	4680	1
0	29756	4683	1
0	29772	4686	1
0	29938	4711	1
0	29949	4712	1
0	29992	4718	1
0	30011	4720	1
0	30022	4721	2
0	30048	4725	1
0	30081	4730	1
0	30113	4734	1
0	30137	4737	2
0	30163	4741	1
0	30206	4747	1
0	30227	4749	1
0	30238	4750	1
0	30262	4753	1
0	30304	4758	1
0	30329	4761	1
0	30341	4762	1
0	30355	4763	1
0	30384	4766	1
0	30428	4772	1
0	30456	4776	1
0	30499	4782	1
0	30509	4783	2
0	30527	4785	1
0	30569	4791	1
0	30591	4796	1
0	30637	4808	1
0	30666	4813	1
0	30680	4816	4
0	30736	4827	1
0	30755	4830	1
0	30832	4840	1
0	30903	4853	1
0	30969	4867	1
0	30979	4868	1
0	30992	4870	1
0	31115	4891	1
0	31133	4893	1
0	31178	4899	1
0	31190	4900	1
0	31234	4908	1
0	31243	4909	2
0	31273	4914	1
0	31326	4921	1
0	31335	4922	2
0	31345	4923	3
0	31407	4931	1
0	31418	4932	1
0	31444	4935	2
0	31501	4945	1
0	31552	4953	1
0	31659	4970	1
0	31757	4983	1
1	2647	400	1
1	2656	401	0
1	2657	401	1
1	2668	402	0
1	2695	405	1
1	2695	405	0
1	2728	409	1
1	2728	409	0
1	2783	418	1
1	2783	418	0
1	2810	423	1
1	2810	423	0
1	2847	429	1
1	2847	429	0
1	2881	432	1
1	2881	432	0
1	2924	438	1
1	2924	438	0
1	2953	442	1
1	2953	442	0
1	2973	444	1
1	2973	444	0
1	2992	446	1
1	2992	446	0
1	3001	447	1
1	3003	447	0
1	3024	450	1
1	3024	450	0
1	3081	461	1
1	3081	461	0
1	3124	470	1
1	3124	470	0
1	3152	475	1
1	3152	475	0
1	3186	481	1
1	3186	481	0
1	3236	491	1
1	3236	491	0
1	3237	491	1
1	3238	491	2
1	3239	491	3
1	3245	492	2
1	3259	494	3
1	3268	495	2
1	3277	496	3
1	3280	496	2
1	3290	497	1
1	3299	498	2
1	3301	498	1
1	3312	499	0
1	3356	508	1
1	3356	508	0
1	3357	508	1
1	3371	509	0
1	3407	514	1
1	3407	514	0
1	3484	525	1
1	3484	525	0
1	3493	526	1
1	3495	526	0
1	3509	528	1
1	3509	528	0
1	3532	531	1
1	3532	531	0
1	3576	538	1
1	3576	538	0
1	3606	543	1
1	3606	543	0
1	3885	583	1
1	3885	583	0
1	3919	587	1
1	3919	587	0
1	3920	587	1
1	3930	588	2
1	3932	588	1
1	3942	589	0
1	3971	593	1
1	3971	593	0
1	3980	594	1
1	3982	594	0
1	3991	595	1
1	4006	597	0
1	4029	600	1
1	4029	600	0
1	4052	603	1
1	4052	603	0
1	4096	611	1
1	4096	611	0
1	4133	619	1
1	4133	619	0
1	4143	620	1
1	4145	620	0
1	4154	621	1
1	4156	621	0
1	4167	623	1
1	4167	623	0
1	4201	628	1
1	4201	628	0
1	4226	631	1
1	4226	631	0
1	4266	640	1
1	4266	640	0
1	4282	643	1
1	4282	643	0
1	4316	651	1
1	4316	651	0
1	4341	655	1
1	4341	655	0
1	4346	656	1
1	4349	656	0
1	4477	679	1
1	4477	679	0
1	4502	683	1
1	4502	683	0
1	4503	683	1
1	4509	684	0
1	4538	691	1
1	4538	691	0
1	4546	692	1
1	4548	692	0
1	4564	694	1
1	4572	695	0
1	4582	696	1
1	4587	696	0
1	4604	698	1
1	4604	698	0
1	4613	699	1
1	4617	699	0
1	4634	701	1
1	4634	701	0
1	4676	706	1
1	4676	706	0
1	4694	708	1
1	4694	708	0
1	4726	712	1
1	4726	712	0
1	4771	718	1
1	4771	718	0
1	4794	722	1
1	4794	722	0
1	4823	728	1
1	4823	728	0
1	4856	735	1
1	4856	735	0
1	4913	748	1
1	4913	748	0
1	4914	748	1
1	4919	749	2
1	4921	749	1
1	4929	750	0
1	4936	751	1
1	4940	751	0
1	5019	762	1
1	5019	762	0
1	5020	762	1
1	5028	763	0
1	5044	766	1
1	5044	766	0
1	5060	769	1
1	5060	769	0
1	5061	769	1
1	5072	771	2
1	5073	771	3
1	5083	772	2
1	5095	773	1
1	5104	774	2
1	5106	774	1
1	5116	775	0
1	5183	786	1
1	5183	786	0
1	5269	801	1
1	5269	801	0
1	5279	802	1
1	5282	802	0
1	5291	803	1
1	5292	803	2
1	5294	803	1
1	5306	804	0
1	5413	826	1
1	5413	826	0
1	5420	827	1
1	5422	827	0
1	5431	829	1
1	5431	829	0
1	5436	830	1
1	5439	830	0
1	5455	832	1
1	5455	832	0
1	5465	833	1
1	5466	833	2
1	5468	833	1
1	5476	834	0
1	5495	837	1
1	5495	837	0
1	5522	842	1
1	5522	842	0
1	5579	856	1
1	5579	856	0
1	5615	860	1
1	5615	860	0
1	5660	868	1
1	5660	868	0
1	5677	870	1
1	5677	870	0
1	5687	871	1
1	5689	871	0
1	5700	873	1
1	5700	873	0
1	5715	878	1
1	5715	878	0
1	5744	885	1
1	5744	885	0
1	5753	887	1
1	5753	887	0
1	5758	888	1
1	5762	888	0
1	5781	891	1
1	5781	891	0
1	5789	892	1
1	5791	892	0
1	5826	897	1
1	5826	897	0
1	5868	903	1
1	5868	903	0
1	5904	911	1
1	5904	911	0
1	5905	911	1
1	5912	912	2
1	5914	912	1
1	5921	913	0
1	5928	914	1
1	5934	914	0
1	5949	916	1
1	5949	916	0
1	5982	924	1
1	5982	924	0
1	6031	936	1
1	6031	936	0
1	6049	940	1
1	6049	940	0
1	6096	946	1
1	6096	946	0
1	6114	948	1
1	6114	948	0
1	6139	953	1
1	6139	953	0
1	6167	957	1
1	6167	957	0
1	6178	959	1
1	6178	959	0
1	6179	959	1
1	6185	960	0
1	6219	965	1
1	6219	965	0
1	6238	967	1
1	6238	967	0
1	6263	970	1
1	6263	970	0
1	6273	971	1
1	6276	971	0
1	6329	978	1
1	6329	978	0
1	6362	982	1
1	6362	982	0
1	6399	986	1
1	6399	986	0
1	6506	1001	1
1	6506	1001	0
1	6516	1002	1
1	6519	1002	0
1	6574	1012	1
1	6574	1012	0
1	6631	1028	1
1	6631	1028	0
1	6772	1052	1
1	6772	1052	0
1	6781	1053	1
1	6784	1053	0
1	6802	1055	1
1	6802	1055	0
1	6819	1057	1
1	6829	1058	0
1	6830	1058	1
1	6840	1059	0
1	6863	1062	1
1	6863	1062	0
1	6894	1070	1
1	6894	1070	0
1	6949	1077	1
1	6949	1077	0
1	6994	1084	1
1	6994	1084	0
1	7003	1086	1
1	7003	1086	0
1	7024	1088	1
1	7024	1088	0
1	7072	1094	1
1	7072	1094	0
1	7091	1096	1
1	7091	1096	0
1	7109	1098	1
1	7109	1098	0
1	7119	1099	1
1	7121	1099	0
1	7182	1107	1
1	7182	1107	0
1	7241	1114	1
1	7241	1114	0
1	7265	1117	1
1	7265	1117	0
1	7296	1121	1
1	7296	1121	0
1	7297	1121	1
1	7307	1122	0
1	7354	1130	1
1	7354	1130	0
1	7389	1139	1
1	7389	1139	0
1	7390	1139	1
1	7399	1140	0
1	7436	1145	1
1	7436	1145	0
1	7460	1149	1
1	7460	1149	0
1	7579	1172	1
1	7579	1172	0
1	7632	1180	1
1	7632	1180	0
1	7652	1185	1
1	7652	1185	0
1	7675	1192	1
1	7675	1192	0
1	7676	1192	1
1	7690	1193	0
1	7721	1197	1
1	7721	1197	0
1	7731	1198	1
1	7733	1198	0
1	7750	1200	1
1	7750	1200	0
1	7751	1200	1
1	7763	1201	0
1	7780	1204	1
1	7780	1204	0
1	7814	1212	1
1	7814	1212	0
1	7821	1213	1
1	7823	1213	0
1	7878	1224	1
1	7878	1224	0
1	7909	1231	1
1	7909	1231	0
1	7929	1234	1
1	7929	1234	0
1	7959	1241	1
1	7959	1241	0
1	7977	1243	1
1	7977	1243	0
1	7995	1245	1
1	7995	1245	0
1	8039	1253	1
1	8039	1253	0
1	8112	1268	1
1	8112	1268	0
1	8130	1272	1
1	8130	1272	0
1	8153	1276	1
1	8153	1276	0
1	8154	1276	1
1	8162	1277	0
1	8182	1282	1
1	8182	1282	0
1	8247	1293	1
1	8247	1293	0
1	8304	1304	1
1	8304	1304	0
1	8305	1304	1
1	8314	1305	0
1	8327	1307	1
1	8327	1307	0
1	8354	1313	1
1	8354	1313	0
1	8384	1319	1
1	8384	1319	0
1	8417	1327	1
1	8417	1327	0
1	8452	1333	1
1	8452	1333	0
1	8491	1339	1
1	8491	1339	0
1	8531	1349	1
1	8531	1349	0
1	8550	1351	1
1	8550	1351	0
1	8567	1353	1
1	8567	1353	0
1	8568	1353	1
1	8578	1354	0
1	8612	1362	1
1	8612	1362	0
1	8631	1364	1
1	8641	1365	0
1	8697	1372	1
1	8697	1372	0
1	8698	1372	1
1	8718	1373	0
1	8735	1375	1
1	8735	1375	0
1	8815	1386	1
1	8815	1386	0
1	8838	1388	1
1	8838	1388	0
1	8874	1393	1
1	8874	1393	0
1	8900	1396	1
1	8900	1396	0
1	8910	1397	1
1	8912	1397	0
1	8990	1408	1
1	8990	1408	0
1	9001	1409	1
1	9004	1409	0
1	9021	1411	1
1	9021	1411	0
1	9031	1412	1
1	9035	1412	0
1	9087	1419	1
1	9087	1419	0
1	9167	1429	1
1	9167	1429	0
1	9229	1438	1
1	9229	1438	0
1	9255	1441	1
1	9255	1441	0
1	9334	1452	1
1	9334	1452	0
1	9335	1452	1
1	9345	1453	0
1	9373	1457	1
1	9373	1457	0
1	9429	1468	1
1	9429	1468	0
1	9445	1470	1
1	9445	1470	0
1	9450	1471	1
1	9451	1471	2
1	9454	1471	1
1	9465	1472	0
1	9472	1473	1
1	9481	1473	0
1	9503	1476	1
1	9503	1476	0
1	9521	1478	1
1	9521	1478	0
1	9571	1486	1
1	9571	1486	0
1	9597	1489	1
1	9597	1489	0
1	9636	1494	1
1	9636	1494	0
1	9637	1494	1
1	9648	1495	0
1	9655	1496	1
1	9657	1496	0
1	9715	1511	1
1	9715	1511	0
1	9740	1515	1
1	9740	1515	0
1	9778	1521	1
1	9778	1521	0
1	9817	1526	1
1	9817	1526	0
1	9871	1534	1
1	9871	1534	0
1	9907	1541	1
1	9907	1541	0
1	9938	1545	1
1	9938	1545	0
1	9939	1545	1
1	9950	1546	0
1	10026	1557	1
1	10026	1557	0
1	10044	1559	1
1	10044	1559	0
1	10061	1561	1
1	10061	1561	0
1	10072	1563	1
1	10072	1563	0
1	10120	1572	1
1	10120	1572	0
1	10129	1574	1
1	10129	1574	0
1	10185	1588	1
1	10185	1588	0
1	10200	1592	1
1	10200	1592	0
1	10232	1598	1
1	10232	1598	0
1	10243	1601	1
1	10243	1601	0
1	10244	1601	1
1	10249	1602	2
1	10253	1602	1
1	10264	1603	0
1	10315	1612	1
1	10315	1612	0
1	10345	1618	1
1	10345	1618	0
1	10352	1619	1
1	10354	1619	0
1	10441	1634	1
1	10441	1634	0
1	10480	1639	1
1	10480	1639	0
1	10516	1645	1
1	10516	1645	0
1	10544	1649	1
1	10544	1649	0
1	10553	1651	1
1	10553	1651	0
1	10569	1653	1
1	10570	1653	2
1	10576	1654	1
1	10581	1655	2
1	10582	1655	3
1	10584	1655	2
1	10589	1656	3
1	10591	1656	2
1	10599	1657	1
1	10606	1658	2
1	10611	1658	1
1	10621	1659	0
1	10638	1661	1
1	10638	1661	0
1	10647	1662	1
1	10650	1662	0
1	10669	1666	1
1	10669	1666	0
1	10670	1666	1
1	10678	1667	2
1	10680	1667	1
1	10689	1668	0
1	10750	1680	1
1	10750	1680	0
1	10778	1683	1
1	10778	1683	0
1	10804	1687	1
1	10804	1687	0
1	10827	1690	1
1	10827	1690	0
1	10879	1701	1
1	10879	1701	0
1	10952	1712	1
1	10952	1712	0
1	11027	1726	1
1	11027	1726	0
1	11127	1741	1
1	11127	1741	0
1	11157	1745	1
1	11157	1745	0
1	11162	1746	1
1	11166	1747	2
1	11167	1747	3
1	11171	1748	2
1	11176	1749	3
1	11178	1749	2
1	11184	1750	1
1	11191	1751	0
1	11198	1752	1
1	11203	1752	0
1	11246	1759	1
1	11246	1759	0
1	11370	1777	1
1	11370	1777	0
1	11387	1779	1
1	11387	1779	0
1	11396	1780	1
1	11398	1780	0
1	11431	1784	1
1	11431	1784	0
1	11461	1787	1
1	11461	1787	0
1	11505	1793	1
1	11505	1793	0
1	11514	1794	1
1	11516	1794	0
1	11554	1799	1
1	11554	1799	0
1	11565	1801	1
1	11565	1801	0
1	11591	1805	1
1	11591	1805	0
1	11602	1806	1
1	11604	1806	0
1	11670	1816	1
1	11670	1816	0
1	11690	1819	1
1	11690	1819	0
1	11707	1822	1
1	11707	1822	0
1	11758	1832	1
1	11758	1832	0
1	11759	1832	1
1	11769	1833	0
1	11784	1835	1
1	11784	1835	0
1	11966	1862	1
1	11966	1862	0
1	11992	1867	1
1	11992	1867	0
1	12063	1878	1
1	12063	1878	0
1	12098	1882	1
1	12098	1882	0
1	12121	1885	1
1	12121	1885	0
1	12158	1889	1
1	12158	1889	0
1	12211	1896	1
1	12211	1896	0
1	12237	1899	1
1	12237	1899	0
1	12414	1926	1
1	12414	1926	0
1	12448	1932	1
1	12448	1932	0
1	12516	1944	1
1	12516	1944	0
1	12550	1948	1
1	12550	1948	0
1	12649	1970	1
1	12649	1970	0
1	12674	1975	1
1	12674	1975	0
1	12724	1985	1
1	12724	1985	0
1	12736	1987	1
1	12736	1987	0
1	12746	1988	1
1	12748	1988	0
1	12768	1992	1
1	12768	1992	0
1	12777	1993	1
1	12779	1993	0
1	12796	1995	1
1	12796	1995	0
1	12819	1998	1
1	12819	1998	0
1	12867	2004	1
1	12867	2004	0
1	12911	2011	1
1	12911	2011	0
1	12928	2014	1
1	12928	2014	0
1	12949	2017	1
1	12949	2017	0
1	12982	2022	1
1	12982	2022	0
1	12999	2025	1
1	12999	2025	0
1	13008	2026	1
1	13010	2026	0
1	13132	2049	1
1	13132	2049	0
1	13150	2051	1
1	13150	2051	0
1	13187	2056	1
1	13187	2056	0
1	13219	2060	1
1	13219	2060	0
1	13228	2061	1
1	13230	2061	0
1	13311	2072	1
1	13311	2072	0
1	13333	2074	1
1	13333	2074	0
1	13342	2075	1
1	13343	2075	2
1	13346	2075	1
1	13356	2076	0
1	13394	2081	1
1	13394	2081	0
1	13403	2082	1
1	13405	2082	0
1	13422	2084	1
1	13422	2084	0
1	13437	2086	1
1	13437	2086	0
1	13495	2097	1
1	13495	2097	0
1	13500	2098	1
1	13503	2098	0
1	13528	2104	1
1	13528	2104	0
1	13552	2108	1
1	13552	2108	0
1	13569	2110	1
1	13569	2110	0
1	13632	2124	1
1	13632	2124	0
1	13639	2125	1
1	13642	2125	0
1	13738	2138	1
1	13738	2138	0
1	13739	2138	1
1	13751	2139	0
1	13783	2143	1
1	13783	2143	0
1	13823	2148	1
1	13823	2148	0
1	13824	2148	1
1	13833	2149	2
1	13837	2149	1
1	13847	2150	0
1	13881	2154	1
1	13881	2154	0
1	13890	2155	1
1	13891	2155	2
1	13893	2155	1
1	13903	2156	0
1	13934	2160	1
1	13934	2160	0
1	13954	2162	1
1	13954	2162	0
1	13964	2163	1
1	13966	2163	0
1	13975	2164	1
1	13981	2164	0
1	14058	2175	1
1	14058	2175	0
1	14096	2180	1
1	14096	2180	0
1	14139	2191	1
1	14139	2191	0
1	14195	2200	1
1	14195	2200	0
1	14231	2205	1
1	14231	2205	0
1	14254	2208	1
1	14254	2208	0
1	14263	2209	1
1	14265	2209	0
1	14286	2211	1
1	14286	2211	0
1	14296	2212	1
1	14299	2212	0
1	14343	2219	1
1	14343	2219	0
1	14406	2228	1
1	14406	2228	0
1	14493	2243	1
1	14493	2243	0
1	14494	2243	1
1	14501	2244	0
1	14514	2246	1
1	14514	2246	0
1	14587	2256	1
1	14587	2256	0
1	14631	2262	1
1	14631	2262	0
1	14640	2263	1
1	14653	2265	0
1	14658	2266	1
1	14661	2266	0
1	14668	2267	1
1	14672	2267	0
1	14688	2270	1
1	14688	2270	0
1	14751	2282	1
1	14751	2282	0
1	14760	2283	1
1	14762	2283	0
1	14785	2287	1
1	14785	2287	0
1	14808	2290	1
1	14808	2290	0
1	14825	2292	1
1	14825	2292	0
1	14880	2301	1
1	14880	2301	0
1	14881	2301	1
1	14887	2302	0
1	14898	2305	1
1	14898	2305	0
1	14899	2305	1
1	14914	2306	0
1	14939	2309	1
1	14939	2309	0
1	15041	2323	1
1	15041	2323	0
1	15078	2328	1
1	15078	2328	0
1	15079	2328	1
1	15091	2329	0
1	15100	2330	1
1	15101	2330	2
1	15103	2330	1
1	15114	2331	0
1	15162	2338	1
1	15162	2338	0
1	15243	2353	1
1	15243	2353	0
1	15267	2359	1
1	15267	2359	0
1	15272	2360	1
1	15276	2360	0
1	15291	2362	1
1	15291	2362	0
1	15327	2369	1
1	15327	2369	0
1	15336	2370	1
1	15337	2370	2
1	15339	2370	1
1	15349	2371	0
1	15363	2373	1
1	15363	2373	0
1	15370	2374	1
1	15371	2374	2
1	15373	2374	1
1	15380	2375	0
1	15387	2376	1
1	15392	2376	0
1	15405	2378	1
1	15405	2378	0
1	15413	2379	1
1	15415	2379	0
1	15426	2381	1
1	15426	2381	0
1	15437	2384	1
1	15437	2384	0
1	15449	2386	1
1	15449	2386	0
1	15507	2395	1
1	15507	2395	0
1	15595	2407	1
1	15595	2407	0
1	15640	2413	1
1	15640	2413	0
1	15788	2444	1
1	15788	2444	0
1	15804	2446	1
1	15812	2447	0
1	15813	2447	1
1	15824	2448	0
1	15842	2451	1
1	15842	2451	0
1	15867	2456	1
1	15867	2456	0
1	15903	2464	1
1	15903	2464	0
1	15923	2467	1
1	15923	2467	0
1	15934	2468	1
1	15936	2468	0
1	15983	2474	1
1	15983	2474	0
1	16056	2489	1
1	16056	2489	0
1	16065	2490	1
1	16066	2490	2
1	16070	2490	1
1	16080	2491	0
1	16128	2499	1
1	16128	2499	0
1	16133	2500	1
1	16134	2500	2
1	16138	2500	1
1	16151	2501	0
1	16173	2504	1
1	16173	2504	0
1	16201	2508	1
1	16201	2508	0
1	16202	2508	1
1	16208	2509	0
1	16213	2510	1
1	16214	2510	2
1	16216	2510	1
1	16221	2511	2
1	16223	2511	1
1	16228	2512	2
1	16230	2512	1
1	16235	2513	2
1	16251	2515	1
1	16252	2515	2
1	16264	2516	1
1	16273	2517	2
1	16275	2517	1
1	16285	2518	0
1	16304	2524	1
1	16304	2524	0
1	16312	2525	1
1	16316	2525	0
1	16339	2529	1
1	16339	2529	0
1	16361	2535	1
1	16361	2535	0
1	16402	2544	1
1	16402	2544	0
1	16422	2548	1
1	16422	2548	0
1	16440	2552	1
1	16440	2552	0
1	16498	2566	1
1	16498	2566	0
1	16509	2569	1
1	16509	2569	0
1	16546	2575	1
1	16546	2575	0
1	16570	2578	1
1	16570	2578	0
1	16669	2599	1
1	16669	2599	0
1	16697	2603	1
1	16697	2603	0
1	16741	2610	1
1	16741	2610	0
1	16757	2613	1
1	16757	2613	0
1	16833	2626	1
1	16833	2626	0
1	16864	2631	1
1	16864	2631	0
1	16873	2633	1
1	16873	2633	0
1	16907	2638	1
1	16907	2638	0
1	16908	2638	1
1	16918	2639	0
1	16935	2644	1
1	16935	2644	0
1	16964	2651	1
1	16964	2651	0
1	16972	2652	1
1	16973	2652	2
1	16978	2652	1
1	16988	2653	0
1	17020	2659	1
1	17020	2659	0
1	17038	2663	1
1	17038	2663	0
1	17043	2664	1
1	17045	2664	0
1	17050	2665	1
1	17052	2665	0
1	17067	2670	1
1	17067	2670	0
1	17072	2671	1
1	17074	2671	0
1	17109	2677	1
1	17109	2677	0
1	17110	2677	1
1	17121	2678	0
1	17128	2679	1
1	17130	2679	0
1	17157	2685	1
1	17157	2685	0
1	17184	2691	1
1	17184	2691	0
1	17185	2691	1
1	17194	2692	0
1	17207	2694	1
1	17218	2695	0
1	17229	2696	1
1	17232	2696	0
1	17241	2697	1
1	17244	2697	0
1	17345	2712	1
1	17345	2712	0
1	17355	2713	1
1	17357	2713	0
1	17391	2719	1
1	17391	2719	0
1	17423	2723	1
1	17423	2723	0
1	17446	2727	1
1	17446	2727	0
1	17495	2737	1
1	17495	2737	0
1	17525	2741	1
1	17525	2741	0
1	17593	2755	1
1	17593	2755	0
1	17611	2757	1
1	17611	2757	0
1	17629	2759	1
1	17629	2759	0
1	17679	2766	1
1	17679	2766	0
1	17689	2767	1
1	17691	2767	0
1	17716	2770	1
1	17716	2770	0
1	17762	2777	1
1	17762	2777	0
1	17806	2784	1
1	17806	2784	0
1	17822	2787	1
1	17822	2787	0
1	17838	2790	1
1	17838	2790	0
1	17843	2791	1
1	17850	2793	0
1	17909	2802	1
1	17909	2802	0
1	17974	2811	1
1	17974	2811	0
1	18011	2816	1
1	18011	2816	0
1	18035	2819	1
1	18035	2819	0
1	18036	2819	1
1	18044	2820	0
1	18108	2832	1
1	18108	2832	0
1	18117	2834	1
1	18117	2834	0
1	18142	2839	1
1	18142	2839	0
1	18158	2842	1
1	18158	2842	0
1	18172	2844	1
1	18172	2844	0
1	18180	2845	1
1	18183	2845	0
1	18192	2846	1
1	18195	2846	0
1	18210	2848	1
1	18210	2848	0
1	18271	2859	1
1	18271	2859	0
1	18281	2860	1
1	18283	2860	0
1	18292	2861	1
1	18294	2861	0
1	18310	2864	1
1	18310	2864	0
1	18317	2865	1
1	18319	2865	0
1	18351	2872	1
1	18351	2872	0
1	18371	2876	1
1	18371	2876	0
1	18435	2886	1
1	18435	2886	0
1	18436	2886	1
1	18445	2887	0
1	18458	2889	1
1	18458	2889	0
1	18466	2890	1