version 3
run Experimentos-545-20260514-09:21:23-6150
attr configname Experimentos
attr datetime 20260514-09:21:23
attr datetimef 20260514-092123
attr experiment Experimentos
attr inifile TwoQueues.ini
attr iterationvars "$p=0.7, $q=0.2, $Y=10, $m=5"
attr iterationvarsd p=0.7/q=0.2/Y=10/m=5
attr iterationvarsf p=0.7,q=0.2,Y=10,m=5-
attr measurement "$p=0.7, $q=0.2, $Y=10, $m=5"
attr network TwoQueues
attr processid 6150
attr repetition 5
attr replication #5
attr resultdir results
attr runnumber 545
attr seedset 545
itervar Y 10
itervar m 5
itervar p 0.7
itervar q 0.2
config description "Barrido completo de parámetros Proyecto 12"
config **.source1.p 0.7
config **.source1.q 0.2
config **.source2.p 0.6
config **.source2.q 0.2
config **.serverWithMaintenance.Y 10
config **.serverWithMaintenance.m 5
config network TwoQueues
config cpu-time-limit 5000s
config sim-time-limit 5000s
config warmup-period 400s
config repeat 20
config output-scalar-file results/Experimentos-p=0.7,q=0.2,Y=10,m=5--#5.sca
config output-vector-file results/Experimentos-p=0.7,q=0.2,Y=10,m=5--#5.vec
config **.vector-recording true

vector 0 TwoQueues.serverWithMaintenance residenceTime2:vector ETV
attr recordingmode vector
attr source delay2
attr title "Residence Time Class 2"
vector 1 TwoQueues.queue2 queueLengthStats:vector ETV
attr recordingmode vector
attr source qlen
attr title "Average Queue Length"
vector 2 TwoQueues.queue1 queueLengthStats:vector ETV
attr recordingmode vector
attr source qlen
attr title "Average Queue Length"
vector 3 TwoQueues.server residenceTime1:vector ETV
attr recordingmode vector
attr source delay1
attr title "Residence Time Class 1"
vector 4 TwoQueues.server throughputStats1:vector ETV
attr recordingmode vector
attr source throughput1
attr title "Throughput Class 1"
0	2145	402	1
0	2190	410	1
0	2200	411	2
0	2213	412	1
0	2229	414	1
0	2240	416	1
0	2285	422	1
0	2323	431	1
0	2332	433	1
0	2363	439	6
0	2372	440	6
0	2381	441	7
0	2387	442	6
0	2393	443	3
0	2408	448	1
0	2422	451	1
0	2449	455	1
0	2459	456	1
0	2478	459	1
0	2554	476	1
0	2641	498	1
0	2702	512	1
0	2713	513	1
0	2739	517	1
0	2753	519	1
0	2810	530	1
0	2849	538	1
0	2928	553	1
0	2964	558	1
0	2989	564	4
0	3051	576	1
0	3062	579	1
0	3090	583	1
0	3135	593	1
0	3157	599	1
0	3164	600	1
0	3195	607	1
0	3207	608	1
0	3256	617	1
0	3286	623	6
0	3311	628	1
0	3330	634	1
0	3349	637	1
0	3415	648	1
0	3460	655	1
0	3497	666	1
0	3554	682	1
0	3572	686	1
0	3588	689	1
0	3621	695	6
0	3632	697	1
0	3642	698	1
0	3649	699	1
0	3662	703	1
0	3728	720	1
0	3734	721	2
0	3740	722	3
0	3747	723	1
0	3754	724	1
0	3809	735	1
0	3819	736	1
0	3848	743	1
0	3857	745	1
0	3880	749	1
0	3933	757	1
0	3949	761	1
0	4021	776	1
0	4034	777	1
0	4045	778	2
0	4095	784	5
0	4104	785	4
0	4113	786	5
0	4143	790	1
0	4158	795	1
0	4189	803	1
0	4219	807	1
0	4269	818	1
0	4285	821	1
0	4322	827	1
0	4377	839	1
0	4407	842	1
0	4425	844	1
0	4475	851	1
0	4486	852	1
0	4507	855	1
0	4532	859	1
0	4557	864	1
0	4588	872	1
0	4601	875	1
0	4659	885	1
0	4676	887	1
0	4708	895	1
0	4717	896	2
0	4728	899	1
0	4738	900	1
0	4779	907	1
0	4817	914	1
0	4834	916	1
0	4981	943	1
0	5014	949	2
0	5085	964	1
0	5094	965	2
0	5105	967	1
0	5112	968	1
0	5147	976	1
0	5159	977	1
0	5233	995	1
0	5261	999	1
0	5340	1012	1
0	5370	1018	5
0	5376	1019	6
0	5382	1020	3
0	5392	1021	1
0	5432	1030	1
0	5444	1031	1
0	5484	1036	1
0	5556	1047	1
0	5612	1059	1
0	5624	1061	1
0	5659	1067	4
0	5670	1068	5
0	5680	1069	6
0	5713	1075	1
0	5842	1098	1
0	5874	1103	1
0	5949	1122	1
0	5999	1132	1
0	6018	1135	1
0	6061	1143	1
0	6097	1149	5
0	6108	1150	2
0	6118	1151	3
0	6131	1152	1
0	6183	1161	1
0	6220	1166	1
0	6232	1167	1
0	6271	1172	1
0	6391	1196	1
0	6398	1197	1
0	6426	1203	3
0	6435	1205	1
0	6462	1211	1
0	6471	1213	1
0	6478	1214	1
0	6487	1216	1
0	6511	1221	1
0	6563	1229	1
0	6570	1230	1
0	6605	1235	1
0	6640	1241	1
0	6652	1242	1
0	6662	1243	2
0	6672	1244	3
0	6697	1249	1
0	6708	1250	2
0	6730	1253	1
0	6741	1254	2
0	6771	1259	1
0	6786	1262	1
0	6824	1268	7
0	6833	1269	4
0	6878	1275	1
0	6887	1276	2
0	6916	1282	1
0	6933	1284	1
0	6949	1286	1
0	6960	1289	1
0	6976	1291	1
0	7000	1295	1
0	7022	1301	7
0	7031	1302	5
0	7044	1303	5
0	7054	1304	2
0	7066	1305	1
0	7108	1315	1
0	7119	1317	1
0	7160	1324	1
0	7171	1325	2
0	7180	1326	2
0	7222	1334	1
0	7233	1337	1
0	7253	1341	1
0	7265	1343	1
0	7311	1349	1
0	7322	1350	2
0	7331	1351	2
0	7338	1352	1
0	7386	1360	1
0	7398	1362	1
0	7434	1368	6
0	7445	1369	2
0	7461	1372	1
0	7481	1378	1
0	7491	1380	1
0	7497	1381	2
0	7533	1389	1
0	7557	1395	1
0	7571	1398	1
0	7582	1401	1
0	7616	1408	1
0	7669	1415	1
0	7720	1423	1
0	7736	1425	1
0	7780	1432	1
0	7833	1441	1
0	7840	1442	1
0	7854	1444	1
0	7861	1445	1
0	7875	1447	1
0	7903	1453	1
0	7946	1462	1
0	8004	1473	1
0	8010	1474	2
0	8152	1505	1
0	8206	1516	1
0	8220	1519	1
0	8242	1525	1
0	8249	1526	1
0	8306	1537	1
0	8329	1543	6
0	8350	1547	1
0	8368	1549	1
0	8408	1556	1
0	8419	1557	1
0	8429	1558	1
0	8436	1559	1
0	8467	1566	1
0	8516	1577	1
0	8528	1578	1
0	8560	1584	4
0	8572	1585	3
0	8597	1589	1
0	8604	1590	1
0	8624	1594	1
0	8640	1598	1
0	8650	1600	1
0	8656	1601	2
0	8689	1608	1
0	8746	1620	1
0	8770	1626	3
0	8797	1630	1
0	8823	1636	1
0	8829	1637	2
0	8839	1638	1
0	8869	1643	1
0	8887	1646	1
0	8894	1647	1
0	8905	1648	1
0	8963	1660	1
0	9001	1666	5
0	9014	1667	4
0	9025	1668	2
0	9054	1674	1
0	9083	1678	1
0	9092	1679	2
0	9104	1680	1
0	9136	1684	1
0	9188	1691	1
0	9205	1693	1
0	9240	1699	2
0	9247	1700	1
0	9263	1703	1
0	9270	1704	1
0	9317	1714	1
0	9339	1717	1
0	9359	1720	1
0	9368	1721	2
0	9379	1722	3
0	9436	1732	1
0	9468	1740	1
0	9486	1744	1
0	9533	1752	1
0	9540	1753	2
0	9547	1754	2
0	9557	1755	2
0	9565	1756	2
0	9607	1762	1
0	9662	1771	1
0	9683	1775	1
0	9720	1783	1
0	9805	1798	1
0	9812	1799	1
0	9832	1804	1
0	9839	1805	1
0	9857	1809	1
0	9880	1812	1
0	9908	1815	1
0	9948	1821	1
0	9962	1824	1
0	10013	1834	1
0	10020	1835	1
0	10027	1836	1
0	10038	1839	1
0	10070	1850	1
0	10098	1854	1
0	10121	1858	1
0	10162	1871	1
0	10215	1885	1
0	10262	1896	1
0	10282	1903	1
0	10297	1907	1
0	10316	1910	1
0	10323	1911	1
0	10333	1912	1
0	10348	1915	1
0	10365	1918	1
0	10377	1919	1
0	10415	1927	1
0	10422	1928	1
0	10445	1934	4
0	10461	1936	1
0	10475	1939	1
0	10482	1940	1
0	10518	1947	1
0	10659	1976	1
0	10667	1977	1
0	10676	1978	2
0	10692	1980	1
0	10699	1981	1
0	10741	1990	1
0	10763	1995	1
0	10781	2000	1
0	10801	2002	1
0	10813	2003	1
0	10852	2012	1
0	10924	2028	1
0	10975	2035	1
0	11010	2041	1
0	11019	2043	1
0	11055	2052	1
0	11065	2053	1
0	11138	2068	1
0	11179	2075	1
0	11196	2077	1
0	11219	2080	1
0	11232	2082	1
0	11257	2085	1
0	11296	2092	1
0	11382	2109	1
0	11414	2116	1
0	11430	2120	1
0	11483	2139	1
0	11501	2143	1
0	11527	2147	1
0	11566	2154	1
0	11577	2155	1
0	11598	2158	1
0	11618	2163	1
0	11657	2170	1
0	11678	2176	6
0	11745	2186	1
0	11778	2191	1
0	11794	2194	1
0	11835	2203	1
0	11862	2207	1
0	11881	2212	1
0	11887	2213	2
0	11905	2217	1
0	11919	2219	1
0	11948	2225	5
0	11954	2226	2
0	11994	2232	1
0	12028	2238	1
0	12053	2243	1
0	12064	2245	1
0	12121	2262	1
0	12138	2264	1
0	12170	2268	1
0	12221	2282	1
0	12268	2288	5
0	12286	2290	1
0	12362	2307	1
0	12392	2312	1
0	12403	2313	2
0	12440	2321	1
0	12447	2322	1
0	12473	2327	1
0	12479	2328	2
0	12523	2337	1
0	12572	2343	7
0	12584	2344	5
0	12594	2345	5
0	12604	2346	3
0	12616	2347	1
0	12665	2358	1
0	12714	2369	1
0	12724	2370	1
0	12744	2375	1
0	12800	2388	1
0	12831	2394	4
0	12842	2395	5
0	12894	2407	1
0	12902	2408	1
0	12919	2409	2
0	12930	2410	2
0	12940	2411	2
0	12964	2414	1
0	13009	2420	1
0	13035	2423	1
0	13066	2429	6
0	13114	2439	1
0	13133	2446	1
0	13149	2448	1
0	13161	2450	1
0	13168	2451	1
0	13185	2457	1
0	13201	2461	1
0	13210	2462	2
0	13227	2464	1
0	13275	2470	6
0	13287	2471	7
0	13297	2472	6
0	13305	2473	7
0	13314	2474	4
0	13322	2475	5
0	13362	2484	1
0	13384	2488	1
0	13390	2489	2
0	13397	2490	1
0	13420	2496	5
0	13462	2502	1
0	13473	2505	1
0	13503	2510	1
0	13522	2516	1
0	13593	2534	1
0	13649	2548	1
0	13656	2549	1
0	13674	2553	1
0	13712	2562	1
0	13742	2568	5
0	13751	2569	4
0	13760	2570	3
0	13770	2571	2
0	13815	2584	1
0	13826	2585	2
0	13832	2586	2
0	13838	2587	3
0	13849	2590	1
0	13897	2599	1
0	14009	2628	1
0	14042	2632	1
0	14128	2649	1
0	14145	2651	1
0	14217	2666	1
0	14302	2685	1
0	14312	2686	1
0	14378	2704	1
0	14389	2707	1
0	14421	2713	1
0	14459	2719	1
0	14468	2721	1
0	14503	2727	1
0	14512	2728	2
0	14545	2737	1
0	14555	2738	1
0	14566	2740	1
0	14573	2741	1
0	14599	2744	1
0	14630	2748	1
0	14678	2758	1
0	14736	2771	1
0	14791	2787	1
0	14840	2799	1
0	14886	2805	1
0	14929	2815	1
0	14944	2818	1
0	14953	2819	2
0	14998	2828	1
0	15127	2854	1
0	15177	2862	1
0	15195	2864	1
0	15228	2869	1
0	15253	2874	1
0	15263	2875	1
0	15277	2877	1
0	15288	2880	1
0	15305	2885	1
0	15379	2902	1
0	15413	2908	1
0	15447	2914	1
0	15490	2922	1
0	15522	2927	1
0	15565	2933	1
0	15584	2939	1
0	15621	2946	1
0	15655	2953	1
0	15669	2955	1
0	15691	2961	1
0	15751	2971	1
0	15801	2987	1
0	15863	3000	1
0	15875	3001	1
0	15886	3002	2
0	15900	3005	1
0	15907	3006	1
0	15932	3010	1
0	15944	3012	1
0	15954	3013	1
0	16017	3026	1
0	16041	3032	5
0	16050	3033	2
0	16128	3051	1
0	16138	3053	1
0	16144	3054	2
0	16153	3056	1
0	16177	3063	1
0	16187	3064	1
0	16204	3069	1
0	16219	3074	1
0	16262	3085	1
0	16293	3092	1
0	16309	3095	1
0	16344	3106	1
0	16351	3107	1
0	16390	3113	1
0	16448	3124	1
0	16466	3127	1
0	16474	3128	1
0	16480	3129	2
0	16508	3135	4
0	16517	3137	1
0	16544	3143	1
0	16556	3146	1
0	16565	3147	2
0	16646	3163	1
0	16667	3167	1
0	16687	3170	1
0	16704	3172	1
0	16735	3181	1
0	16763	3187	6
0	16774	3188	6
0	16786	3189	2
0	16796	3190	2
0	16820	3193	1
0	16836	3195	1
0	16909	3207	1
0	16916	3208	2
0	16928	3209	2
0	16961	3213	1
0	17003	3219	4
0	17020	3222	1
0	17026	3223	2
0	17033	3224	1
0	17065	3230	1
0	17074	3232	1
0	17081	3233	1
0	17098	3239	1
0	17147	3250	1
0	17157	3251	1
0	17185	3257	5
0	17192	3258	1
0	17227	3264	1
0	17236	3265	2
0	17254	3269	1
0	17301	3276	1
0	17312	3277	1
0	17356	3285	1
0	17395	3291	1
0	17420	3297	1
0	17451	3303	6
0	17474	3306	1
0	17496	3312	1
0	17506	3313	1
0	17575	3329	1
0	17588	3331	1
0	17611	3334	1
0	17617	3335	2
0	17688	3346	1
0	17714	3350	1
0	17815	3370	1
0	17827	3371	1
0	17837	3372	1
0	17855	3376	1
0	17877	3382	1
0	17884	3383	1
0	17893	3385	1
0	17918	3392	1
0	17928	3393	2
0	17936	3394	2
0	17965	3400	3
0	17971	3401	2
0	18002	3409	1
0	18013	3410	1
0	18024	3411	2
0	18042	3415	1
0	18064	3420	1
0	18077	3424	1
0	18088	3427	1
0	18104	3430	1
0	18127	3436	2
0	18139	3438	1
0	18172	3446	1
0	18181	3448	1
0	18211	3452	1
0	18227	3455	1
0	18250	3460	1
0	18275	3465	1
0	18286	3467	1
0	18372	3483	1
0	18403	3489	7
0	18414	3490	1
0	18442	3493	1
0	18460	3495	1
0	18484	3498	1
0	18526	3510	1
0	18537	3513	1
0	18553	3516	1
0	18604	3529	1
0	18615	3532	1
0	18644	3538	6
0	18650	3539	7
0	18687	3549	1
0	18718	3554	1
0	18772	3564	1
0	18794	3567	1
0	18826	3572	1
0	18835	3574	1
0	18846	3576	1
0	18912	3588	1
0	18953	3594	6
0	18969	3598	1
0	18982	3602	1
0	18996	3605	1
0	19008	3606	2
0	19034	3609	1
0	19048	3610	1
0	19065	3612	1
0	19134	3626	1
0	19153	3628	1
0	19198	3634	7
0	19244	3641	1
0	19310	3655	1
0	19319	3656	2
0	19441	3676	1
0	19453	3678	1
0	19493	3683	1
0	19513	3687	1
0	19535	3692	1
0	19588	3699	1
0	19616	3705	7
0	19622	3706	2
0	19664	3717	1
0	19671	3718	1
0	19684	3722	1
0	19699	3726	1
0	19711	3728	1
0	19738	3734	1
0	19783	3749	1
0	19834	3757	1
0	19868	3763	3
0	19877	3764	2
0	19886	3765	1
0	19952	3785	1
0	19958	3786	2
0	19967	3788	1
0	20019	3800	1
0	20028	3801	2
0	20050	3807	1
0	20115	3818	1
0	20164	3826	1
0	20245	3844	1
0	20276	3848	1
0	20298	3853	1
0	20314	3856	1
0	20323	3858	1
0	20332	3860	1
0	20339	3861	1
0	20351	3864	1
0	20357	3865	2
0	20387	3871	1
0	20397	3872	1
0	20430	3880	1
0	20440	3881	1
0	20464	3884	1
0	20489	3887	1
0	20503	3890	1
0	20524	3898	1
0	20599	3918	1
0	20613	3920	1
0	20639	3926	4
0	20651	3927	2
0	20663	3928	2
0	20672	3929	2
0	20681	3931	1
0	20712	3937	1
0	20744	3941	1
0	20755	3942	2
0	20775	3948	1
0	20789	3951	1
0	20847	3963	1
0	20854	3964	2
0	20860	3965	2
0	20867	3966	1
0	20900	3973	1
0	20918	3975	1
0	20931	3976	1
0	20942	3977	1
0	20974	3981	1
0	21057	4000	1
0	21095	4008	1
0	21106	4009	1
0	21121	4011	1
0	21148	4016	1
0	21188	4027	1
0	21197	4028	2
0	21207	4029	1
0	21216	4030	1
0	21228	4032	1
0	21296	4049	1
0	21327	4055	1
0	21347	4060	1
0	21363	4063	1
0	21378	4067	1
0	21390	4068	1
0	21402	4069	1
0	21420	4073	1
0	21462	4081	1
0	21486	4086	1
0	21496	4087	1
0	21530	4093	6
0	21536	4094	6
0	21568	4098	1
0	21578	4099	2
0	21592	4102	1
0	21603	4105	1
0	21627	4108	1
0	21668	4114	1
0	21696	4118	1
0	21729	4123	1
0	21771	4129	3
0	21783	4130	3
0	21795	4131	1
0	21837	4139	1
0	21915	4152	1
0	21930	4154	1
0	21957	4159	1
0	21977	4164	1
0	22005	4170	1
0	22015	4171	2
0	22036	4177	7
0	22042	4178	6
0	22051	4179	6
0	22107	4189	1
0	22124	4191	1
0	22158	4200	1
0	22174	4202	1
0	22181	4203	1
0	22206	4207	1
0	22219	4209	1
0	22253	4215	7
0	22265	4216	4
0	22275	4217	2
0	22331	4235	1
0	22341	4236	1
0	22363	4241	1
0	22405	4252	1
0	22421	4255	1
0	22472	4268	1
0	22515	4276	1
0	22540	4284	1
0	22547	4285	1
0	22554	4286	1
0	22565	4288	1
0	22575	4289	1
0	22588	4293	1
0	22682	4320	1
0	22694	4323	1
0	22701	4324	2
0	22707	4325	2
0	22731	4331	5
0	22737	4332	4
0	22796	4345	1
0	22849	4353	1
0	22856	4354	1
0	22888	4359	1
0	22898	4360	1
0	22914	4363	1
0	22921	4364	1
0	22928	4365	1
0	22946	4371	1
0	22964	4373	1
0	22990	4378	1
0	22999	4380	1
0	23008	4382	1
0	23015	4383	1
0	23071	4392	1
0	23104	4396	1
0	23120	4398	1
0	23127	4399	1
0	23171	4408	1
0	23180	4410	1
0	23226	4419	1
0	23235	4420	2
0	23244	4422	1
0	23262	4426	1
0	23314	4434	1
0	23348	4438	1
0	23385	4443	1
0	23409	4446	1
0	23468	4456	1
0	23495	4461	1
0	23505	4462	1
0	23521	4465	1
0	23561	4475	1
0	23568	4476	1
0	23577	4478	1
0	23614	4489	1
0	23629	4493	1
0	23679	4503	1
0	23733	4512	1
0	23747	4515	1
0	23851	4531	1
0	23886	4535	1
0	23906	4537	1
0	23938	4541	1
0	23986	4547	1
0	24016	4551	1
0	24053	4560	1
0	24059	4561	2
0	24098	4567	6
0	24110	4568	3
0	24121	4569	4
0	24131	4570	3
0	24140	4571	4
0	24158	4575	1
0	24175	4578	1
0	24181	4579	2
0	24196	4583	1
0	24214	4588	1
0	24252	4594	4
0	24284	4599	1
0	24330	4607	1
0	24345	4609	1
0	24393	4622	1
0	24419	4627	1
0	24426	4628	2
0	24436	4629	2
0	24462	4632	1
0	24505	4638	1
0	24545	4644	1
0	24561	4647	1
0	24577	4650	1
0	24594	4653	1
0	24603	4654	2
0	24626	4657	1
0	24708	4674	1
0	24715	4675	1
0	24726	4678	1
0	24733	4679	1
0	24784	4689	1
0	24792	4690	1
0	24798	4691	2
0	24808	4692	1
0	24817	4693	1
0	24878	4701	1
0	24910	4707	1
0	24917	4708	1
0	24928	4709	1
0	24939	4710	1
0	24964	4716	3
0	24971	4717	1
0	25001	4726	1
0	25013	4727	1
0	25034	4731	1
0	25110	4743	1
0	25121	4744	1
0	25127	4745	2
0	25168	4751	1
0	25190	4754	1
0	25224	4760	6
0	25230	4761	7
0	25246	4763	1
0	25322	4778	1
0	25347	4781	1
0	25375	4786	1
0	25414	4793	1
0	25421	4794	1
0	25461	4803	1
0	25473	4805	1
0	25532	4815	1
0	25550	4817	1
0	25598	4831	1
0	25608	4832	2
0	25618	4833	3
0	25629	4835	1
0	25640	4836	1
0	25695	4848	1
0	25717	4853	1
0	25744	4856	1
0	25779	4862	1
0	25796	4868	1
0	25840	4875	1
0	25855	4879	1
0	25865	4880	1
0	25876	4881	1
0	25906	4888	1
0	25915	4890	1
0	25976	4904	1
0	26040	4915	1
0	26061	4921	5
0	26071	4922	6
0	26080	4923	2
0	26089	4924	1
0	26116	4929	1
0	26128	4931	1
0	26200	4952	1
0	26242	4958	1
0	26256	4961	1
0	26262	4962	2
0	26288	4968	8
0	26297	4969	9
0	26303	4970	8
0	26309	4971	6
0	26324	4976	1
0	26337	4977	1
0	26401	4986	1
0	26427	4991	1
0	26470	4999	1
1	2141	401	1
1	2141	401	0
1	2180	409	1
1	2180	409	0
1	2181	409	1
1	2193	410	0
1	2202	411	1
1	2206	411	0
1	2223	413	1
1	2223	413	0
1	2234	415	1
1	2234	415	0
1	2279	421	1
1	2279	421	0
1	2317	430	1
1	2317	430	0
1	2328	432	1
1	2328	432	0
1	2333	433	1
1	2340	434	2
1	2341	434	3
1	2353	436	4
1	2359	438	3
1	2366	439	2
1	2373	440	3
1	2377	440	2
1	2383	441	1
1	2389	442	0
1	2404	447	1
1	2404	447	0
1	2415	450	1
1	2415	450	0
1	2443	454	1
1	2443	454	0
1	2451	455	1
1	2453	455	0
1	2471	458	1
1	2471	458	0
1	2544	475	1
1	2544	475	0
1	2634	497	1
1	2634	497	0
1	2696	511	1
1	2696	511	0
1	2703	512	1
1	2707	512	0
1	2733	516	1
1	2733	516	0
1	2747	518	1
1	2747	518	0
1	2803	529	1
1	2803	529	0
1	2845	537	1
1	2845	537	0
1	2920	552	1
1	2920	552	0
1	2958	557	1
1	2958	557	0
1	2973	560	1
1	2983	563	0
1	3045	575	1
1	3045	575	0
1	3058	578	1
1	3058	578	0
1	3084	582	1
1	3084	582	0
1	3131	592	1
1	3131	592	0
1	3153	598	1
1	3153	598	0
1	3158	599	1
1	3160	599	0
1	3189	606	1
1	3189	606	0
1	3197	607	1
1	3200	607	0
1	3249	616	1
1	3249	616	0
1	3258	617	1
1	3282	622	0
1	3305	627	1
1	3305	627	0
1	3324	633	1
1	3324	633	0
1	3343	636	1
1	3343	636	0
1	3406	647	1
1	3406	647	0
1	3456	654	1
1	3456	654	0
1	3493	665	1
1	3493	665	0
1	3550	681	1
1	3550	681	0
1	3566	685	1
1	3566	685	0
1	3584	688	1
1	3584	688	0
1	3589	689	1
1	3617	694	0
1	3626	696	1
1	3626	696	0
1	3634	697	1
1	3636	697	0
1	3643	698	1
1	3645	698	0
1	3658	702	1
1	3658	702	0
1	3722	719	1
1	3722	719	0
1	3723	719	1
1	3724	719	2
1	3730	720	1
1	3736	721	0
1	3741	722	1
1	3743	722	0
1	3748	723	1
1	3750	723	0
1	3803	734	1
1	3803	734	0
1	3811	735	1
1	3813	735	0
1	3844	742	1
1	3844	742	0
1	3853	744	1
1	3853	744	0
1	3874	748	1
1	3874	748	0
1	3926	756	1
1	3926	756	0
1	3945	760	1
1	3945	760	0
1	4013	775	1
1	4013	775	0
1	4023	776	1
1	4024	776	2
1	4027	776	1
1	4038	777	0
1	4056	779	1
1	4070	781	2
1	4071	781	3
1	4088	783	2
1	4098	784	1
1	4107	785	0
1	4137	789	1
1	4137	789	0
1	4154	794	1
1	4154	794	0
1	4185	802	1
1	4185	802	0
1	4212	806	1
1	4212	806	0
1	4265	817	1
1	4265	817	0
1	4279	820	1
1	4279	820	0
1	4316	826	1
1	4316	826	0
1	4373	838	1
1	4373	838	0
1	4394	841	1
1	4394	841	0
1	4418	843	1
1	4418	843	0
1	4467	850	1
1	4467	850	0
1	4477	851	1
1	4479	851	0
1	4500	854	1
1	4500	854	0
1	4528	858	1
1	4528	858	0
1	4553	863	1
1	4553	863	0
1	4584	871	1
1	4584	871	0
1	4595	874	1
1	4595	874	0
1	4649	884	1
1	4649	884	0
1	4669	886	1
1	4669	886	0
1	4699	894	1
1	4699	894	0
1	4700	894	1
1	4711	895	0
1	4724	898	1
1	4724	898	0
1	4729	899	1
1	4732	899	0
1	4775	906	1
1	4775	906	0
1	4809	913	1
1	4809	913	0
1	4827	915	1
1	4827	915	0
1	4975	942	1
1	4975	942	0
1	5006	947	1
1	5010	948	0
1	5080	963	1
1	5080	963	0
1	5081	963	1
1	5088	964	0
1	5101	966	1
1	5101	966	0
1	5106	967	1
1	5108	967	0
1	5140	975	1
1	5140	975	0
1	5149	976	1
1	5152	976	0
1	5225	994	1
1	5225	994	0
1	5254	998	1
1	5254	998	0
1	5336	1011	1
1	5336	1011	0
1	5344	1013	1
1	5345	1013	2
1	5363	1017	1
1	5364	1017	2
1	5372	1018	1
1	5378	1019	0
1	5383	1020	1
1	5386	1020	0
1	5426	1029	1
1	5426	1029	0
1	5433	1030	1
1	5438	1030	0
1	5477	1035	1
1	5477	1035	0
1	5552	1046	1
1	5552	1046	0
1	5606	1058	1
1	5606	1058	0
1	5620	1060	1
1	5620	1060	0
1	5630	1063	1
1	5631	1063	2
1	5632	1063	3
1	5652	1066	2
1	5663	1067	1
1	5673	1068	0
1	5707	1074	1
1	5707	1074	0
1	5835	1097	1
1	5835	1097	0
1	5870	1102	1
1	5870	1102	0
1	5941	1121	1
1	5941	1121	0
1	5992	1131	1
1	5992	1131	0
1	6014	1134	1
1	6014	1134	0
1	6053	1142	1
1	6053	1142	0
1	6068	1144	1
1	6087	1148	0
1	6088	1148	1
1	6089	1148	2
1	6101	1149	1
1	6111	1150	0
1	6120	1151	1
1	6124	1151	0
1	6177	1160	1
1	6177	1160	0
1	6213	1165	1
1	6213	1165	0
1	6222	1166	1
1	6225	1166	0
1	6263	1171	1
1	6263	1171	0
1	6385	1195	1
1	6385	1195	0
1	6392	1196	1
1	6394	1196	0
1	6411	1200	1
1	6422	1202	0
1	6431	1204	1
1	6431	1204	0
1	6458	1210	1
1	6458	1210	0
1	6467	1212	1
1	6467	1212	0
1	6472	1213	1
1	6474	1213	0
1	6483	1215	1
1	6483	1215	0
1	6503	1220	1
1	6503	1220	0
1	6559	1228	1
1	6559	1228	0
1	6564	1229	1
1	6566	1229	0
1	6599	1234	1
1	6599	1234	0
1	6633	1240	1
1	6633	1240	0
1	6642	1241	1
1	6643	1241	2
1	6644	1241	3
1	6646	1241	2
1	6656	1242	1
1	6666	1243	0
1	6690	1248	1
1	6690	1248	0
1	6691	1248	1
1	6701	1249	0
1	6723	1252	1
1	6723	1252	0
1	6724	1252	1
1	6734	1253	0
1	6764	1258	1
1	6764	1258	0
1	6781	1261	1
1	6781	1261	0
1	6782	1261	1
1	6808	1265	2
1	6820	1267	1
1	6827	1268	0
1	6871	1274	1
1	6871	1274	0
1	6872	1274	1
1	6881	1275	0
1	6912	1281	1
1	6912	1281	0
1	6925	1283	1
1	6925	1283	0
1	6943	1285	1
1	6943	1285	0
1	6956	1288	1
1	6956	1288	0
1	6968	1290	1
1	6968	1290	0
1	6992	1294	1
1	6992	1294	0
1	6993	1294	1
1	7009	1297	2
1	7012	1298	3
1	7018	1300	2
1	7025	1301	1
1	7032	1302	2
1	7038	1302	1
1	7048	1303	0
1	7055	1304	1
1	7060	1304	0
1	7104	1314	1
1	7104	1314	0
1	7113	1316	1
1	7113	1316	0
1	7152	1323	1
1	7152	1323	0
1	7153	1323	1
1	7162	1324	2
1	7164	1324	1
1	7174	1325	0
1	7216	1333	1
1	7216	1333	0
1	7229	1336	1
1	7229	1336	0
1	7247	1340	1
1	7247	1340	0
1	7261	1342	1
1	7261	1342	0
1	7302	1348	1
1	7302	1348	0
1	7303	1348	1
1	7313	1349	2
1	7315	1349	1
1	7325	1350	0
1	7332	1351	1
1	7334	1351	0
1	7379	1359	1
1	7379	1359	0
1	7394	1361	1
1	7394	1361	0
1	7399	1362	1
1	7426	1367	0
1	7427	1367	1
1	7438	1368	0
1	7455	1371	1
1	7455	1371	0
1	7477	1377	1
1	7477	1377	0
1	7486	1379	1
1	7486	1379	0
1	7487	1379	1
1	7493	1380	0
1	7527	1388	1
1	7527	1388	0
1	7551	1394	1
1	7551	1394	0
1	7567	1397	1
1	7567	1397	0
1	7578	1400	1
1	7578	1400	0
1	7608	1407	1
1	7608	1407	0
1	7662	1414	1
1	7662	1414	0
1	7713	1422	1
1	7713	1422	0
1	7730	1424	1
1	7730	1424	0
1	7776	1431	1
1	7776	1431	0
1	7829	1440	1
1	7829	1440	0
1	7834	1441	1
1	7836	1441	0
1	7848	1443	1
1	7848	1443	0
1	7855	1444	1
1	7857	1444	0
1	7869	1446	1
1	7869	1446	0
1	7897	1452	1
1	7897	1452	0
1	7937	1461	1
1	7937	1461	0
1	7999	1472	1
1	7999	1472	0
1	8000	1472	1
1	8006	1473	0
1	8148	1504	1
1	8148	1504	0
1	8198	1515	1
1	8198	1515	0
1	8216	1518	1
1	8216	1518	0
1	8238	1524	1
1	8238	1524	0
1	8243	1525	1
1	8245	1525	0
1	8300	1536	1
1	8300	1536	0
1	8307	1537	1
1	8325	1542	0
1	8342	1546	1
1	8342	1546	0
1	8360	1548	1
1	8360	1548	0
1	8401	1555	1
1	8401	1555	0
1	8410	1556	1
1	8412	1556	0
1	8421	1557	1
1	8423	1557	0
1	8430	1558	1
1	8432	1558	0
1	8459	1565	1
1	8459	1565	0
1	8508	1576	1
1	8508	1576	0
1	8518	1577	1
1	8521	1577	0
1	8543	1580	1
1	8550	1582	2
1	8554	1583	1
1	8565	1584	0
1	8593	1588	1
1	8593	1588	0
1	8598	1589	1
1	8600	1589	0
1	8618	1593	1
1	8618	1593	0
1	8636	1597	1
1	8636	1597	0
1	8645	1599	1
1	8645	1599	0
1	8646	1599	1
1	8652	1600	0
1	8681	1607	1
1	8681	1607	0
1	8740	1619	1
1	8740	1619	0
1	8757	1623	1
1	8763	1625	0
1	8790	1629	1
1	8790	1629	0
1	8816	1635	1
1	8816	1635	0
1	8817	1635	1
1	8825	1636	0
1	8830	1637	1
1	8833	1637	0
1	8860	1642	1
1	8860	1642	0
1	8883	1645	1
1	8883	1645	0
1	8888	1646	1
1	8890	1646	0
1	8895	1647	1
1	8899	1647	0
1	8955	1659	1
1	8955	1659	0
1	8973	1661	1
1	8984	1663	2
1	8994	1665	1
1	9003	1666	2
1	9007	1666	1
1	9018	1667	0
1	9050	1673	1
1	9050	1673	0
1	9076	1677	1
1	9076	1677	0
1	9077	1677	1
1	9086	1678	0
1	9093	1679	1
1	9098	1679	0
1	9129	1683	1
1	9129	1683	0
1	9182	1690	1
1	9182	1690	0
1	9197	1692	1
1	9197	1692	0
1	9227	1697	1
1	9234	1698	0
1	9241	1699	1
1	9243	1699	0
1	9259	1702	1
1	9259	1702	0
1	9264	1703	1
1	9266	1703	0
1	9310	1713	1
1	9310	1713	0
1	9332	1716	1
1	9332	1716	0
1	9353	1719	1
1	9353	1719	0
1	9354	1719	1
1	9355	1719	2
1	9362	1720	1
1	9373	1721	0
1	9432	1731	1
1	9432	1731	0
1	9464	1739	1
1	9464	1739	0
1	9482	1743	1
1	9482	1743	0
1	9528	1751	1
1	9528	1751	0
1	9529	1751	1
1	9534	1752	2
1	9536	1752	1
1	9541	1753	2
1	9543	1753	1
1	9548	1754	2
1	9551	1754	1
1	9561	1755	0
1	9601	1761	1
1	9601	1761	0
1	9656	1770	1
1	9656	1770	0
1	9679	1774	1
1	9679	1774	0
1	9716	1782	1
1	9716	1782	0
1	9801	1797	1
1	9801	1797	0
1	9806	1798	1
1	9808	1798	0
1	9828	1803	1
1	9828	1803	0
1	9833	1804	1
1	9835	1804	0
1	9853	1808	1
1	9853	1808	0
1	9872	1811	1
1	9872	1811	0
1	9900	1814	1
1	9900	1814	0
1	9942	1820	1
1	9942	1820	0
1	9958	1823	1
1	9958	1823	0
1	10007	1833	1
1	10007	1833	0
1	10014	1834	1
1	10016	1834	0
1	10021	1835	1
1	10023	1835	0
1	10034	1838	1
1	10034	1838	0
1	10066	1849	1
1	10066	1849	0
1	10092	1853	1
1	10092	1853	0
1	10115	1857	1
1	10115	1857	0
1	10158	1870	1
1	10158	1870	0
1	10211	1884	1
1	10211	1884	0
1	10256	1895	1
1	10256	1895	0
1	10278	1902	1
1	10278	1902	0
1	10291	1906	1
1	10291	1906	0
1	10310	1909	1
1	10310	1909	0
1	10317	1910	1
1	10319	1910	0
1	10324	1911	1
1	10327	1911	0
1	10342	1914	1
1	10342	1914	0
1	10358	1917	1
1	10358	1917	0
1	10367	1918	1
1	10370	1918	0
1	10411	1926	1
1	10411	1926	0
1	10416	1927	1
1	10418	1927	0
1	10433	1930	1
1	10441	1933	0
1	10453	1935	1
1	10453	1935	0
1	10471	1938	1
1	10471	1938	0
1	10476	1939	1
1	10478	1939	0
1	10512	1946	1
1	10512	1946	0
1	10655	1975	1
1	10655	1975	0
1	10660	1976	1
1	10661	1976	2
1	10663	1976	1
1	10670	1977	0
1	10686	1979	1
1	10686	1979	0
1	10693	1980	1
1	10695	1980	0
1	10734	1989	1
1	10734	1989	0
1	10759	1994	1
1	10759	1994	0
1	10774	1999	1
1	10774	1999	0
1	10791	2001	1
1	10791	2001	0
1	10803	2002	1
1	10806	2002	0
1	10848	2011	1
1	10848	2011	0
1	10920	2027	1
1	10920	2027	0
1	10967	2034	1
1	10967	2034	0
1	11006	2040	1
1	11006	2040	0
1	11015	2042	1
1	11015	2042	0
1	11047	2051	1
1	11047	2051	0
1	11057	2052	1
1	11059	2052	0
1	11131	2067	1
1	11131	2067	0
1	11175	2074	1
1	11175	2074	0
1	11189	2076	1
1	11189	2076	0
1	11213	2079	1
1	11213	2079	0
1	11224	2081	1
1	11224	2081	0
1	11250	2084	1
1	11250	2084	0
1	11287	2091	1
1	11287	2091	0
1	11376	2108	1
1	11376	2108	0
1	11407	2115	1
1	11407	2115	0
1	11426	2119	1
1	11426	2119	0
1	11479	2138	1
1	11479	2138	0
1	11497	2142	1
1	11497	2142	0
1	11519	2146	1
1	11519	2146	0
1	11558	2153	1
1	11558	2153	0
1	11568	2154	1
1	11570	2154	0
1	11591	2157	1
1	11591	2157	0
1	11612	2162	1
1	11612	2162	0
1	11651	2169	1
1	11651	2169	0
1	11659	2170	1
1	11674	2175	0
1	11738	2185	1
1	11738	2185	0
1	11772	2190	1
1	11772	2190	0
1	11790	2193	1
1	11790	2193	0
1	11828	2202	1
1	11828	2202	0
1	11854	2206	1
1	11854	2206	0
1	11876	2211	1
1	11876	2211	0
1	11877	2211	1
1	11883	2212	0
1	11901	2216	1
1	11901	2216	0
1	11913	2218	1
1	11913	2218	0
1	11923	2220	1
1	11943	2224	0
1	11944	2224	1
1	11950	2225	0
1	11986	2231	1
1	11986	2231	0
1	12024	2237	1
1	12024	2237	0
1	12047	2242	1
1	12047	2242	0
1	12058	2244	1
1	12058	2244	0
1	12117	2261	1
1	12117	2261	0
1	12129	2263	1
1	12129	2263	0
1	12163	2267	1
1	12163	2267	0
1	12217	2281	1
1	12217	2281	0
1	12230	2283	1
1	12261	2287	0
1	12278	2289	1
1	12278	2289	0
1	12358	2306	1
1	12358	2306	0
1	12382	2311	1
1	12382	2311	0
1	12383	2311	1
1	12396	2312	0
1	12436	2320	1
1	12436	2320	0
1	12441	2321	1
1	12443	2321	0
1	12468	2326	1
1	12468	2326	0
1	12469	2326	1
1	12475	2327	0
1	12518	2336	1
1	12518	2336	0
1	12519	2336	1
1	12540	2339	2
1	12548	2340	3
1	12564	2342	2
1	12574	2343	3
1	12577	2343	2
1	12587	2344	1
1	12597	2345	0
1	12606	2346	1
1	12609	2346	0
1	12661	2357	1
1	12661	2357	0
1	12708	2368	1
1	12708	2368	0
1	12716	2369	1
1	12718	2369	0
1	12740	2374	1
1	12740	2374	0
1	12796	2387	1
1	12796	2387	0
1	12806	2390	1
1	12807	2390	2
1	12825	2393	1
1	12835	2394	0
1	12890	2406	1
1	12890	2406	0
1	12895	2407	1
1	12896	2407	2
1	12898	2407	1
1	12903	2408	2
1	12913	2408	1
1	12920	2409	2
1	12924	2409	1
1	12934	2410	0
1	12955	2413	1
1	12955	2413	0
1	13000	2419	1
1	13000	2419	0
1	13027	2422	1
1	13027	2422	0
1	13037	2423	1
1	13060	2428	0
1	13108	2438	1
1	13108	2438	0
1	13129	2445	1
1	13129	2445	0
1	13142	2447	1
1	13142	2447	0
1	13157	2449	1
1	13157	2449	0
1	13162	2450	1
1	13164	2450	0
1	13181	2456	1
1	13181	2456	0
1	13194	2460	1
1	13194	2460	0
1	13195	2460	1
1	13204	2461	0
1	13218	2463	1
1	13218	2463	0
1	13229	2464	1
1	13230	2464	2
1	13247	2466	3
1	13248	2466	4
1	13269	2469	3
1	13276	2470	4
1	13277	2470	5
1	13281	2470	4
1	13291	2471	3
1	13301	2472	2
1	13308	2473	1
1	13318	2474	0
1	13354	2483	1
1	13354	2483	0
1	13379	2487	1
1	13379	2487	0
1	13380	2487	1
1	13386	2488	0
1	13391	2489	1
1	13393	2489	0
1	13401	2491	1
1	13414	2495	0
1	13456	2501	1
1	13456	2501	0
1	13469	2504	1
1	13469	2504	0
1	13497	2509	1
1	13497	2509	0
1	13516	2515	1
1	13516	2515	0
1	13587	2533	1
1	13587	2533	0
1	13643	2547	1
1	13643	2547	0
1	13650	2548	1
1	13652	2548	0
1	13668	2552	1
1	13668	2552	0
1	13708	2561	1
1	13708	2561	0
1	13716	2563	1
1	13725	2565	2
1	13737	2567	1
1	13738	2567	2
1	13745	2568	1
1	13752	2569	2
1	13756	2569	1
1	13764	2570	0
1	13808	2583	1
1	13808	2583	0
1	13809	2583	1
1	13817	2584	2
1	13818	2584	3
1	13820	2584	2
1	13828	2585	1
1	13834	2586	0
1	13845	2589	1
1	13845	2589	0
1	13891	2598	1
1	13891	2598	0
1	14002	2627	1
1	14002	2627	0
1	14034	2631	1
1	14034	2631	0
1	14124	2648	1
1	14124	2648	0
1	14138	2650	1
1	14138	2650	0
1	14211	2665	1
1	14211	2665	0
1	14295	2684	1
1	14295	2684	0
1	14304	2685	1
1	14306	2685	0
1	14372	2703	1
1	14372	2703	0
1	14385	2706	1
1	14385	2706	0
1	14417	2712	1
1	14417	2712	0
1	14455	2718	1
1	14455	2718	0
1	14464	2720	1
1	14464	2720	0
1	14495	2726	1
1	14495	2726	0
1	14496	2726	1
1	14506	2727	0
1	14539	2736	1
1	14539	2736	0
1	14546	2737	1
1	14549	2737	0
1	14562	2739	1
1	14562	2739	0
1	14567	2740	1
1	14569	2740	0
1	14592	2743	1
1	14592	2743	0
1	14623	2747	1
1	14623	2747	0
1	14674	2757	1
1	14674	2757	0
1	14729	2770	1
1	14729	2770	0
1	14787	2786	1
1	14787	2786	0
1	14836	2798	1
1	14836	2798	0
1	14878	2804	1
1	14878	2804	0
1	14923	2814	1
1	14923	2814	0
1	14939	2817	1
1	14939	2817	0
1	14940	2817	1
1	14947	2818	0
1	14994	2827	1
1	14994	2827	0
1	15119	2853	1
1	15119	2853	0
1	15168	2861	1
1	15168	2861	0
1	15188	2863	1
1	15188	2863	0
1	15222	2868	1
1	15222	2868	0
1	15245	2873	1
1	15245	2873	0
1	15255	2874	1
1	15257	2874	0
1	15271	2876	1
1	15271	2876	0
1	15284	2879	1
1	15284	2879	0
1	15299	2884	1
1	15299	2884	0
1	15373	2901	1
1	15373	2901	0
1	15405	2907	1
1	15405	2907	0
1	15443	2913	1
1	15443	2913	0
1	15483	2921	1
1	15483	2921	0
1	15515	2926	1
1	15515	2926	0
1	15559	2932	1
1	15559	2932	0
1	15578	2938	1
1	15578	2938	0
1	15617	2945	1
1	15617	2945	0
1	15651	2952	1
1	15651	2952	0
1	15663	2954	1
1	15663	2954	0
1	15687	2960	1
1	15687	2960	0
1	15745	2970	1
1	15745	2970	0
1	15795	2986	1
1	15795	2986	0
1	15856	2999	1
1	15856	2999	0
1	15865	3000	1
1	15866	3000	2
1	15868	3000	1
1	15879	3001	0
1	15896	3004	1
1	15896	3004	0
1	15901	3005	1
1	15903	3005	0
1	15925	3009	1
1	15925	3009	0
1	15940	3011	1
1	15940	3011	0
1	15945	3012	1
1	15948	3012	0
1	16013	3025	1
1	16013	3025	0
1	16021	3027	1
1	16036	3031	0
1	16037	3031	1
1	16044	3032	0
1	16122	3050	1
1	16122	3050	0
1	16133	3052	1
1	16133	3052	0
1	16134	3052	1
1	16140	3053	0
1	16149	3055	1
1	16149	3055	0
1	16173	3062	1
1	16173	3062	0
1	16178	3063	1
1	16181	3063	0
1	16200	3068	1
1	16200	3068	0
1	16215	3073	1
1	16215	3073	0
1	16256	3084	1
1	16256	3084	0
1	16286	3091	1
1	16286	3091	0
1	16303	3094	1
1	16303	3094	0
1	16340	3105	1
1	16340	3105	0
1	16345	3106	1
1	16347	3106	0
1	16384	3112	1
1	16384	3112	0
1	16441	3123	1
1	16441	3123	0
1	16462	3126	1
1	16462	3126	0
1	16467	3127	1
1	16468	3127	2
1	16470	3127	1
1	16476	3128	0
1	16486	3131	1
1	16502	3134	0
1	16513	3136	1