version 3
run Experimentos-321-20260514-09:21:11-5030
attr configname Experimentos
attr datetime 20260514-09:21:11
attr datetimef 20260514-092111
attr experiment Experimentos
attr inifile TwoQueues.ini
attr iterationvars "$p=0.6, $q=0.3, $Y=20, $m=2"
attr iterationvarsd p=0.6/q=0.3/Y=20/m=2
attr iterationvarsf p=0.6,q=0.3,Y=20,m=2-
attr measurement "$p=0.6, $q=0.3, $Y=20, $m=2"
attr network TwoQueues
attr processid 5030
attr repetition 1
attr replication #1
attr resultdir results
attr runnumber 321
attr seedset 321
itervar Y 20
itervar m 2
itervar p 0.6
itervar q 0.3
config description "Barrido completo de parámetros Proyecto 12"
config **.source1.p 0.6
config **.source1.q 0.2
config **.source2.p 0.6
config **.source2.q 0.3
config **.serverWithMaintenance.Y 20
config **.serverWithMaintenance.m 2
config network TwoQueues
config cpu-time-limit 5000s
config sim-time-limit 5000s
config warmup-period 400s
config repeat 20
config output-scalar-file results/Experimentos-p=0.6,q=0.3,Y=20,m=2--#1.sca
config output-vector-file results/Experimentos-p=0.6,q=0.3,Y=20,m=2--#1.vec
config **.vector-recording true

vector 0 TwoQueues.serverWithMaintenance residenceTime2:vector ETV
attr recordingmode vector
attr source delay2
attr title "Residence Time Class 2"
vector 1 TwoQueues.queue2 queueLengthStats:vector ETV
attr recordingmode vector
attr source qlen
attr title "Average Queue Length"
vector 2 TwoQueues.queue1 queueLengthStats:vector ETV
attr recordingmode vector
attr source qlen
attr title "Average Queue Length"
vector 3 TwoQueues.server residenceTime1:vector ETV
attr recordingmode vector
attr source delay1
attr title "Residence Time Class 1"
vector 4 TwoQueues.server throughputStats1:vector ETV
attr recordingmode vector
attr source throughput1
attr title "Throughput Class 1"
0	2630	401	1
0	2654	404	1
0	2722	413	1
0	2754	417	1
0	2815	428	1
0	2834	430	1
0	2856	436	1
0	2908	445	1
0	2918	446	1
0	2934	448	1
0	2957	452	1
0	2983	456	1
0	3012	461	1
0	3075	472	1
0	3126	479	1
0	3178	490	1
0	3208	495	1
0	3256	504	1
0	3313	514	1
0	3327	517	1
0	3338	520	1
0	3349	521	1
0	3382	525	1
0	3394	526	1
0	3405	527	1
0	3435	531	1
0	3450	536	1
0	3471	540	1
0	3507	549	1
0	3521	551	1
0	3594	562	1
0	3603	563	2
0	3615	564	1
0	3630	565	1
0	3641	566	2
0	3652	567	2
0	3660	568	2
0	3688	576	1
0	3714	580	1
0	3739	586	1
0	3770	593	1
0	3780	594	1
0	3799	596	1
0	3819	600	1
0	3858	608	1
0	3872	609	1
0	3884	610	2
0	3909	613	3
0	3928	615	1
0	3946	617	1
0	3973	620	1
0	3985	621	1
0	4010	626	1
0	4023	627	2
0	4034	628	1
0	4054	631	1
0	4068	634	1
0	4085	636	1
0	4101	638	1
0	4108	639	1
0	4137	648	1
0	4147	649	2
0	4212	659	1
0	4223	660	1
0	4241	663	1
0	4274	668	1
0	4286	669	1
0	4310	672	1
0	4317	673	1
0	4330	677	1
0	4337	678	1
0	4385	687	1
0	4422	692	1
0	4451	696	1
0	4481	700	1
0	4510	705	1
0	4521	706	2
0	4532	707	2
0	4551	709	1
0	4584	713	1
0	4596	715	1
0	4603	716	1
0	4628	723	1
0	4634	724	2
0	4649	727	1
0	4674	730	1
0	4702	733	1
0	4726	736	2
0	4738	738	1
0	4745	739	1
0	4754	741	1
0	4761	742	1
0	4773	744	1
0	4785	745	2
0	4829	752	1
0	4840	753	1
0	4851	754	1
0	4858	755	2
0	4864	756	2
0	4871	757	1
0	4878	758	1
0	4890	759	1
0	4900	760	2
0	4928	764	1
0	4946	767	1
0	4953	768	1
0	4977	771	1
0	4996	774	2
0	5014	777	1
0	5033	780	1
0	5042	782	1
0	5049	783	1
0	5142	797	1
0	5167	800	1
0	5177	801	2
0	5189	803	1
0	5212	809	1
0	5218	810	2
0	5278	817	1
0	5360	829	1
0	5384	833	1
0	5400	835	1
0	5412	837	1
0	5432	842	1
0	5463	847	1
0	5483	849	1
0	5494	850	2
0	5520	853	2
0	5531	854	1
0	5544	855	1
0	5659	870	1
0	5683	873	1
0	5721	878	1
0	5732	879	1
0	5750	881	1
0	5771	883	1
0	5807	888	1
0	5818	889	1
0	5824	890	2
0	5860	896	1
0	5872	897	1
0	5884	898	1
0	5896	899	2
0	5909	900	1
0	5935	903	1
0	5972	908	1
0	5982	909	1
0	6000	912	2
0	6006	913	2
0	6032	921	1
0	6076	928	1
0	6092	931	1
0	6106	934	1
0	6118	935	1
0	6127	936	2
0	6138	938	1
0	6187	946	1
0	6196	948	1
0	6238	954	1
0	6277	960	1
0	6292	962	1
0	6301	963	2
0	6311	964	3
0	6320	965	4
0	6332	966	3
0	6346	967	4
0	6469	985	1
0	6494	988	1
0	6516	991	1
0	6552	996	1
0	6566	997	1
0	6583	999	1
0	6627	1004	1
0	6638	1005	2
0	6649	1006	2
0	6675	1009	1
0	6689	1010	1
0	6714	1013	1
0	6724	1014	2
0	6770	1020	1
0	6801	1025	1
0	6830	1032	1
0	6858	1038	1
0	6867	1039	2
0	6874	1040	2
0	6880	1041	3
0	6889	1042	4
0	6909	1045	6
0	6944	1051	1
0	6963	1053	1
0	6973	1054	2
0	6995	1057	1
0	7017	1060	1
0	7039	1065	1
0	7104	1074	1
0	7123	1076	1
0	7141	1078	1
0	7160	1081	1
0	7169	1082	2
0	7217	1094	1
0	7227	1095	1
0	7236	1097	1
0	7243	1098	1
0	7272	1102	1
0	7283	1103	2
0	7300	1105	1
0	7310	1106	2
0	7323	1109	4
0	7340	1111	1
0	7356	1114	1
0	7391	1119	1
0	7398	1120	1
0	7409	1123	1
0	7438	1130	1
0	7461	1134	1
0	7479	1136	1
0	7501	1139	1
0	7511	1141	1
0	7521	1142	2
0	7529	1143	2
0	7536	1144	1
0	7592	1153	1
0	7609	1155	1
0	7651	1161	1
0	7657	1162	2
0	7692	1169	1
0	7698	1170	2
0	7715	1173	3
0	7725	1174	3
0	7734	1175	4
0	7748	1177	1
0	7778	1182	1
0	7815	1188	1
0	7831	1190	1
0	7857	1194	1
0	7879	1196	1
0	7897	1198	1
0	7915	1200	1
0	7932	1202	1
0	7964	1206	1
0	7982	1208	1
0	8010	1212	1
0	8020	1213	1
0	8046	1217	1
0	8095	1228	1
0	8141	1238	1
0	8148	1239	2
0	8160	1242	4
0	8166	1243	3
0	8173	1244	1
0	8182	1246	1
0	8192	1247	1
0	8204	1249	1
0	8210	1250	2
0	8243	1254	1
0	8253	1255	2
0	8295	1264	1
0	8310	1266	1
0	8321	1267	1
0	8351	1271	1
0	8362	1272	2
0	8373	1273	2
0	8385	1275	1
0	8393	1276	1
0	8399	1277	2
0	8438	1284	1
0	8464	1287	1
0	8490	1290	3
0	8501	1291	2
0	8510	1292	2
0	8533	1296	1
0	8554	1300	1
0	8604	1307	1
0	8642	1312	1
0	8661	1314	1
0	8680	1317	1
0	8687	1318	1
0	8779	1331	1
0	8808	1335	1
0	8862	1342	1
0	8872	1343	1
0	8879	1344	1
0	8908	1351	1
0	8950	1356	1
0	8961	1357	1
0	9033	1371	1
0	9040	1372	1
0	9059	1378	1
0	9065	1379	2
0	9079	1381	1
0	9090	1382	2
0	9101	1383	2
0	9110	1384	2
0	9151	1389	1
0	9219	1401	1
0	9230	1403	1
0	9297	1412	1
0	9350	1419	1
0	9378	1422	1
0	9390	1423	1
0	9401	1424	2
0	9444	1430	1
0	9454	1431	1
0	9463	1433	1
0	9492	1438	1
0	9556	1452	1
0	9586	1456	1
0	9622	1463	1
0	9638	1465	1
0	9651	1467	1
0	9662	1468	1
0	9680	1470	1
0	9707	1473	1
0	9718	1474	1
0	9728	1475	1
0	9739	1478	1
0	9751	1480	1
0	9769	1482	1
0	9806	1488	1
0	9823	1490	1
0	9845	1496	1
0	9925	1510	1
0	9946	1514	1
0	9955	1516	1
0	9967	1519	1
0	9974	1520	2
0	9983	1521	2
0	10023	1527	1
0	10061	1535	1
0	10096	1540	1
0	10108	1542	1
0	10115	1543	1
0	10129	1545	1
0	10139	1546	1
0	10153	1547	1
0	10171	1549	1
0	10188	1551	1
0	10218	1556	1
0	10228	1557	1
0	10281	1569	1
0	10298	1571	1
0	10308	1572	1
0	10334	1579	1
0	10346	1581	1
0	10353	1582	1
0	10366	1584	1
0	10422	1594	1
0	10437	1598	1
0	10443	1599	2
0	10453	1600	1
0	10504	1607	1
0	10523	1609	1
0	10565	1615	1
0	10606	1627	1
0	10623	1630	1
0	10641	1632	1
0	10669	1635	1
0	10683	1636	2
0	10694	1637	1
0	10746	1644	1
0	10764	1646	1
0	10811	1653	1
0	10855	1661	1
0	10896	1666	1
0	10914	1668	1
0	10940	1671	1
0	10964	1674	1
0	10993	1677	2
0	11011	1679	1
0	11048	1684	1
0	11062	1685	1
0	11076	1686	2
0	11088	1687	2
0	11101	1688	2
0	11111	1689	2
0	11124	1690	3
0	11159	1695	1
0	11171	1696	1
0	11189	1699	1
0	11207	1703	1
0	11216	1704	1
0	11225	1705	2
0	11237	1706	3
0	11245	1707	2
0	11306	1719	1
0	11350	1726	1
0	11369	1729	1
0	11383	1732	2
0	11445	1741	1
0	11468	1744	1
0	11501	1747	1
0	11514	1748	2
0	11526	1749	2
0	11538	1750	3
0	11562	1753	1
0	11575	1754	1
0	11588	1755	1
0	11599	1756	2
0	11630	1760	1
0	11660	1764	1
0	11722	1775	1
0	11748	1782	1
0	11762	1785	1
0	11773	1787	1
0	11814	1795	1
0	11826	1796	1
0	11843	1798	1
0	11863	1801	3
0	11875	1802	1
0	11897	1807	1
0	11933	1814	1
0	11954	1817	1
0	11966	1818	1
0	11978	1820	1
0	11987	1822	1
0	12022	1827	1
0	12050	1831	1
0	12089	1836	1
0	12121	1840	1
0	12198	1851	1
0	12229	1858	1
0	12237	1859	1
0	12244	1860	2
0	12250	1861	2
0	12259	1863	1
0	12270	1866	1
0	12287	1868	1
0	12317	1875	1
0	12331	1876	2
0	12392	1884	1
0	12433	1889	1
0	12463	1893	1
0	12474	1894	1
0	12537	1902	1
0	12558	1904	1
0	12568	1905	2
0	12579	1906	1
0	12619	1911	1
0	12646	1914	1
0	12668	1917	1
0	12679	1919	1
0	12720	1924	1
0	12748	1931	1
0	12771	1936	1
0	12798	1942	1
0	12834	1949	1
0	12858	1954	1
0	12878	1957	4
0	12888	1958	4
0	12897	1959	4
0	12908	1960	3
0	12920	1961	1
0	12929	1962	1
0	12963	1970	1
0	13006	1978	1
0	13034	1982	1
0	13055	1984	1
0	13075	1986	1
0	13106	1990	1
0	13119	1991	1
0	13129	1992	2
0	13147	1994	1
0	13162	1995	2
0	13204	2000	1
0	13216	2001	1
0	13249	2005	1
0	13259	2006	2
0	13291	2009	3
0	13306	2010	3
0	13316	2011	4
0	13326	2012	5
0	13351	2015	1
0	13363	2016	2
0	13380	2018	1
0	13437	2026	1
0	13470	2032	1
0	13496	2040	1
0	13514	2043	1
0	13526	2045	1
0	13533	2046	1
0	13543	2047	1
0	13562	2051	1
0	13596	2055	1
0	13607	2056	2
0	13699	2069	1
0	13713	2071	1
0	13787	2082	1
0	13827	2090	1
0	13860	2099	1
0	13881	2101	1
0	13892	2102	1
0	13909	2104	1
0	13961	2111	1
0	13974	2112	1
0	13990	2114	1
0	14001	2117	1
0	14017	2119	1
0	14027	2120	1
0	14064	2126	1
0	14073	2128	1
0	14087	2130	1
0	14158	2141	1
0	14185	2144	1
0	14218	2149	1
0	14227	2150	2
0	14244	2152	1
0	14256	2153	1
0	14275	2156	1
0	14314	2163	1
0	14326	2164	2
0	14337	2165	3
0	14366	2168	1
0	14383	2170	1
0	14419	2174	1
0	14431	2175	1
0	14441	2176	2
0	14473	2180	1
0	14497	2183	1
0	14517	2185	1
0	14541	2189	1
0	14548	2190	1
0	14557	2192	1
0	14620	2202	1
0	14634	2203	1
0	14644	2204	2
0	14658	2205	1
0	14743	2216	1
0	14806	2224	1
0	14821	2225	1
0	14832	2226	1
0	14858	2229	1
0	14890	2233	1
0	14938	2240	1
0	14949	2241	1
0	14967	2244	1
0	14977	2246	1
0	14988	2247	2
0	15009	2250	1
0	15019	2251	1
0	15045	2254	1
0	15068	2257	1
0	15081	2261	1
0	15097	2264	1
0	15108	2266	1
0	15134	2269	1
0	15159	2274	1
0	15172	2275	1
0	15208	2280	1
0	15217	2281	2
0	15228	2284	1
0	15238	2285	1
0	15261	2289	1
0	15281	2291	1
0	15292	2292	1
0	15308	2294	1
0	15318	2295	1
0	15327	2296	1
0	15340	2299	1
0	15378	2305	1
0	15410	2311	1
0	15440	2315	1
0	15482	2321	1
0	15493	2324	1
0	15500	2325	1
0	15565	2334	1
0	15592	2338	1
0	15598	2339	2
0	15685	2353	1
0	15705	2355	1
0	15724	2357	1
0	15756	2361	1
0	15785	2366	1
0	15823	2372	1
0	15886	2384	1
0	15925	2390	1
0	15936	2391	1
0	15979	2396	1
0	16016	2401	1
0	16050	2406	1
0	16095	2412	1
0	16121	2416	1
0	16157	2422	1
0	16171	2424	1
0	16177	2425	2
0	16188	2426	3
0	16200	2427	2
0	16211	2428	3
0	16237	2431	5
0	16255	2433	1
0	16283	2440	1
0	16289	2441	2
0	16304	2445	1
0	16334	2449	1
0	16365	2453	1
0	16401	2462	1
0	16432	2465	1
0	16454	2467	1
0	16464	2468	2
0	16506	2474	1
0	16517	2475	1
0	16534	2477	1
0	16603	2487	1
0	16615	2488	1
0	16634	2491	1
0	16662	2495	1
0	16686	2498	1
0	16708	2503	1
0	16725	2506	1
0	16734	2508	1
0	16744	2509	1
0	16772	2516	1
0	16795	2520	1
0	16807	2522	1
0	16814	2523	1
0	16828	2525	1
0	16905	2536	1
0	16925	2538	1
0	16942	2540	1
0	16967	2543	1
0	16976	2544	2
0	16995	2547	1
0	17006	2548	1
0	17029	2554	1
0	17039	2555	2
0	17051	2556	2
0	17061	2557	2
0	17072	2558	3
0	17088	2561	4
0	17103	2562	5
0	17113	2563	6
0	17123	2564	4
0	17133	2565	4
0	17143	2566	5
0	17168	2570	1
0	17196	2574	1
0	17220	2577	1
0	17232	2579	1
0	17246	2581	1
0	17257	2582	1
0	17275	2584	1
0	17338	2592	1
0	17363	2595	1
0	17385	2598	1
0	17392	2599	1
0	17416	2606	1
0	17424	2607	1
0	17430	2608	2
0	17463	2613	1
0	17473	2614	1
0	17484	2617	1
0	17498	2620	1
0	17509	2621	2
0	17548	2629	1
0	17565	2632	1
0	17571	2633	2
0	17621	2641	1
0	17632	2642	1
0	17643	2643	1
0	17660	2645	1
0	17691	2650	1
0	17703	2651	1
0	17718	2652	1
0	17801	2664	1
0	17827	2667	1
0	17837	2668	2
0	17843	2669	2
0	17851	2670	1
0	17875	2673	4
0	17888	2674	2
0	17934	2680	1
0	17961	2683	1
0	17973	2684	1
0	17984	2685	2
0	17993	2686	2
0	18005	2689	1
0	18011	2690	2
0	18020	2692	1
0	18046	2697	1
0	18052	2698	2
0	18119	2707	1
0	18181	2716	1
0	18190	2717	2
0	18199	2719	1
0	18209	2720	1
0	18222	2723	1
0	18229	2724	1
0	18241	2726	1
0	18271	2729	4
0	18282	2730	2
0	18306	2733	1
0	18317	2734	2
0	18327	2735	1
0	18338	2738	1
0	18393	2750	1
0	18399	2751	2
0	18421	2756	1
0	18434	2757	1
0	18477	2763	1
0	18510	2767	1
0	18547	2774	1
0	18557	2775	1
0	18588	2780	1
0	18594	2781	2
0	18614	2784	1
0	18627	2785	1
0	18667	2790	1
0	18685	2792	1
0	18717	2796	1
0	18728	2797	1
0	18737	2798	2
0	18755	2802	1
0	18785	2806	1
0	18887	2822	1
0	18935	2830	1
0	18947	2832	1
0	18962	2835	1
0	19005	2841	1
0	19023	2843	1
0	19033	2844	2
0	19052	2847	1
0	19068	2849	1
0	19074	2850	2
0	19081	2851	3
0	19088	2852	2
0	19098	2853	2
0	19107	2854	2
0	19114	2855	2
0	19135	2858	4
0	19169	2865	1
0	19202	2871	1
0	19209	2872	2
0	19221	2873	2
0	19252	2879	1
0	19262	2880	1
0	19330	2891	1
0	19341	2892	2
0	19364	2895	1
0	19377	2898	1
0	19387	2899	1
0	19398	2902	1
0	19410	2903	1
0	19434	2906	1
0	19460	2909	1
0	19510	2917	1
0	19523	2918	1
0	19545	2923	1
0	19563	2927	1
0	19578	2930	1
0	19613	2934	1
0	19630	2936	1
0	19641	2937	1
0	19651	2938	1
0	19662	2940	1
0	19673	2941	1
0	19679	2942	2
0	19709	2946	1
0	19719	2947	1
0	19746	2952	1
0	19758	2953	1
0	19768	2954	1
0	19794	2958	1
0	19853	2967	1
0	19864	2968	2
0	19875	2969	1
0	19917	2976	1
0	19933	2978	1
0	19947	2980	1
0	19971	2983	3
0	19980	2984	3
0	19986	2985	3
0	20023	2991	1
0	20030	2992	1
0	20047	2994	1
0	20064	2996	1
0	20071	2997	2
0	20080	2998	2
0	20098	3001	1
0	20120	3007	1
0	20131	3008	1
0	20143	3009	2
0	20152	3010	2
0	20158	3011	2
0	20181	3016	1
0	20200	3019	1
0	20207	3020	2
0	20216	3021	2
0	20253	3026	1
0	20354	3043	1
0	20372	3045	1
0	20383	3046	1
0	20408	3049	1
0	20438	3052	1
0	20448	3053	2
0	20461	3054	1
0	20473	3055	2
0	20492	3057	1
0	20503	3058	2
0	20516	3059	1
0	20528	3060	1
0	20538	3061	2
0	20556	3063	1
0	20570	3064	2
0	20617	3070	1
0	20641	3072	1
0	20658	3073	2
0	20668	3074	2
0	20712	3080	1
0	20737	3083	3
0	20747	3084	3
0	20820	3096	1
0	20829	3098	1
0	20861	3103	1
0	20871	3104	1
0	20878	3105	1
0	20896	3108	1
0	20908	3109	1
0	20926	3114	1
0	20955	3119	1
0	20965	3120	2
0	21016	3131	1
0	21022	3132	2
0	21030	3133	1
0	21039	3134	2
0	21049	3135	1
0	21056	3136	2
0	21065	3137	2
0	21083	3139	1
0	21101	3142	4
0	21111	3143	5
0	21119	3144	3
0	21125	3145	4
0	21131	3146	4
0	21140	3148	1
0	21147	3149	1
0	21154	3150	1
0	21164	3151	1
0	21197	3159	1
0	21213	3163	1
0	21224	3164	1
0	21245	3168	1
0	21293	3176	1
0	21315	3179	1
0	21389	3188	1
0	21401	3189	2
0	21426	3192	1
0	21458	3196	1
0	21469	3197	2
0	21496	3200	5
0	21506	3201	4
0	21517	3202	3
0	21531	3203	4
0	21542	3204	3
0	21552	3205	2
0	21570	3207	1
0	21601	3211	1
0	21718	3229	1
0	21729	3231	1
0	21756	3234	1
0	21788	3238	1
0	21800	3240	1
0	21870	3255	1
0	21900	3260	1
0	21919	3262	1
0	21941	3264	1
0	21961	3266	1
0	21974	3267	2
0	22029	3274	1
0	22053	3277	4
0	22064	3278	4
0	22075	3279	1
0	22093	3281	1
0	22123	3285	1
0	22161	3292	1
0	22167	3293	2
0	22179	3295	1
0	22188	3296	2
0	22278	3311	1
0	22288	3312	2
0	22299	3313	1
0	22315	3315	1
0	22332	3317	1
0	22342	3318	1
0	22367	3321	1
0	22378	3322	1
0	22390	3323	1
0	22408	3326	1
0	22428	3329	1
0	22455	3332	3
0	22491	3337	1
0	22549	3350	1
0	22564	3351	1
0	22575	3352	2
0	22585	3353	3
0	22623	3358	1
0	22695	3368	1
0	22727	3372	1
0	22737	3373	2
0	22771	3377	1
0	22782	3378	1
0	22837	3385	1
0	22849	3386	1
0	22862	3387	1
0	22873	3388	1
0	22893	3390	1
0	22905	3391	2
0	22930	3394	1
0	22943	3395	1
0	22974	3398	4
0	22985	3399	4
0	22997	3400	4
0	23010	3401	1
0	23051	3406	1
0	23100	3413	1
0	23111	3414	1
0	23129	3416	1
0	23170	3422	1
0	23180	3423	2
0	23187	3424	2
0	23193	3425	2
0	23203	3427	1
0	23212	3428	2
0	23241	3433	1
0	23256	3436	1
0	23262	3437	2
0	23272	3438	1
0	23318	3446	1
0	23327	3447	2
0	23346	3451	1
0	23369	3455	1
0	23386	3457	1
0	23397	3458	2
0	23420	3462	1
0	23438	3467	1
0	23466	3474	1
0	23498	3478	1
0	23510	3479	2
0	23519	3480	2
0	23526	3481	1
0	23538	3482	1
0	23554	3484	1
0	23577	3487	1
0	23626	3493	1
0	23670	3499	1
0	23704	3505	1
0	23711	3506	1
0	23721	3507	1
0	23730	3508	1
0	23759	3513	1
0	23777	3516	1
0	23793	3518	1
0	23810	3520	1
0	23817	3521	1
0	23833	3523	1
0	23881	3529	1
0	23901	3531	1
0	23935	3536	1
0	23951	3538	1
0	23969	3541	1
0	23979	3542	1
0	23999	3546	1
0	24072	3561	1
0	24088	3563	1
0	24118	3567	1
0	24144	3570	1
0	24155	3571	1
0	24194	3575	1
0	24246	3582	1
0	24272	3585	3
0	24282	3586	2
0	24295	3587	3
0	24305	3588	2
0	24316	3589	3
0	24330	3592	1
0	24337	3593	1
0	24344	3594	1
0	24369	3599	1
0	24383	3601	1
0	24396	3604	1
0	24408	3605	1
0	24418	3606	1
0	24435	3608	1
0	24446	3609	1
0	24458	3610	1
0	24473	3613	1
0	24480	3614	2
0	24486	3615	2
0	24497	3617	1
0	24514	3620	3
0	24520	3621	4
0	24526	3622	5
0	24537	3624	1
0	24558	3628	1
0	24574	3633	1
0	24580	3634	2
0	24587	3635	1
0	24603	3638	1
0	24619	3640	1
0	24686	3652	1
0	24699	3655	1
0	24716	3657	1
0	24723	3658	1
0	24746	3661	1
0	24774	3666	1
0	24785	3669	1
0	24794	3671	1
0	24810	3674	1
0	24830	3677	1
0	24884	3684	1
0	24894	3685	2
0	24900	3686	2
0	24925	3691	1
0	24932	3692	1
0	24983	3700	1
0	25017	3705	1
0	25035	3707	1
0	25047	3708	1
0	25061	3709	1
0	25084	3712	1
0	25111	3719	1
0	25128	3721	1
0	25139	3722	1
0	25152	3724	1
0	25159	3725	2
0	25165	3726	2
0	25176	3729	1
0	25183	3730	1
0	25199	3734	1
0	25229	3737	4
0	25240	3738	4
0	25251	3739	5
0	25261	3740	5
0	25271	3741	1
0	25287	3745	1
0	25314	3749	1
0	25361	3755	1
0	25371	3756	1
0	25395	3763	1
0	25402	3764	1
0	25410	3765	1
0	25416	3766	2
0	25447	3772	1
0	25502	3779	1
0	25520	3781	1
0	25546	3784	1
0	25578	3788	1
0	25627	3794	1
0	25639	3795	2
0	25665	3798	4
0	25732	3807	1
0	25777	3814	1
0	25792	3815	2
0	25804	3816	1
0	25841	3821	1
0	25895	3830	1
0	25902	3831	1
0	25925	3835	1
0	25936	3836	1
0	25960	3840	1
0	25967	3841	1
0	26048	3857	1
0	26059	3858	1
0	26072	3859	1
0	26091	3861	1
0	26102	3862	2
0	26137	3867	1
0	26155	3869	1
0	26175	3871	1
0	26207	3875	1
0	26261	3885	1
0	26271	3886	1
0	26286	3887	1
0	26350	3896	1
0	26383	3902	1
0	26426	3908	1
0	26457	3913	1
0	26464	3914	1
0	26471	3915	1
0	26478	3916	1
0	26486	3917	1
0	26492	3918	2
0	26506	3921	1
0	26522	3923	1
0	26541	3925	1
0	26589	3934	1
0	26629	3939	1
0	26640	3940	1
0	26658	3942	1
0	26689	3946	1
0	26727	3951	1
0	26736	3952	2
0	26815	3968	1
0	26825	3969	1
0	26840	3974	1
0	26902	3986	1
0	26920	3989	1
0	26931	3990	1
0	27021	4006	1
0	27041	4008	1
0	27066	4011	1
0	27078	4013	1
0	27126	4019	1
0	27173	4028	1
0	27183	4029	1
0	27192	4030	1
0	27255	4040	1
0	27306	4048	1
0	27348	4053	1
0	27375	4056	2
0	27385	4057	2
0	27423	4062	1
0	27433	4063	2
0	27444	4064	3
0	27470	4067	1
0	27486	4069	1
0	27504	4074	1
0	27516	4075	1
0	27534	4078	1
0	27545	4080	1
0	27589	4088	1
0	27613	4094	1
0	27656	4103	1
0	27677	4105	1
0	27687	4106	2
0	27701	4108	1
0	27708	4109	2
0	27714	4110	3
0	27721	4111	3
0	27744	4114	4
0	27754	4115	3
0	27789	4119	1
0	27802	4120	1
0	27843	4125	1
0	27933	4137	1
0	27972	4142	1
0	27983	4143	1
0	28014	4147	1
0	28041	4150	1
0	28057	4151	2
0	28074	4153	1
0	28085	4154	1
0	28109	4157	1
0	28122	4158	1
0	28133	4159	2
0	28143	4160	2
0	28167	4163	1
0	28198	4167	1
0	28237	4172	1
0	28293	4180	1
0	28302	4181	2
0	28357	4191	1
0	28389	4195	1
0	28458	4205	1
0	28498	4210	1
0	28509	4211	1
0	28527	4215	1
0	28555	4220	1
0	28565	4221	1
0	28577	4222	1
0	28595	4225	1
0	28613	4228	1
0	28633	4233	1
0	28655	4235	1
0	28665	4236	2
0	28678	4237	1
0	28697	4239	1
0	28710	4240	1
0	28720	4241	2
0	28740	4244	2
0	28749	4245	2
0	28763	4247	1
0	28782	4250	1
0	28788	4251	2
0	28825	4259	1
0	28834	4260	2
0	28867	4265	1
0	28876	4266	2
0	28898	4271	1
0	28906	4272	1
0	28912	4273	2
0	28919	4274	1
0	28956	4280	1
0	28979	4283	1
0	28990	4284	1
0	28999	4285	2
0	29012	4288	1
0	29039	4291	1
0	29101	4301	1
0	29165	4309	1
0	29179	4310	2
0	29213	4314	1
0	29238	4317	1
0	29249	4318	1
0	29295	4324	1
0	29354	4332	1
0	29365	4333	1
0	29375	4334	1
0	29382	4335	1
0	29398	4338	1
0	29405	4339	1
0	29421	4341	1
0	29453	4347	1
0	29577	4370	1
0	29615	4375	1
0	29724	4391	1
0	29731	4392	1
0	29742	4394	1
0	29833	4406	1
0	29861	4409	4
0	29910	4416	1
0	29935	4421	1
0	29950	4424	1
0	29961	4425	2
0	29986	4428	1
0	29996	4429	1
0	30048	4438	1
0	30072	4441	1
0	30085	4443	1
0	30095	4444	2
0	30155	4451	1
0	30166	4452	1
0	30177	4453	1
0	30234	4461	1
0	30251	4463	1
0	30265	4466	1
0	30274	4468	1
0	30301	4473	1
0	30314	4474	1
0	30338	4477	4
0	30366	4484	1
0	30383	4486	1
0	30423	4495	1
0	30494	4504	1
0	30507	4505	1
0	30536	4509	1
0	30547	4510	1
0	30589	4516	1
0	30624	4520	1
0	30643	4522	1
0	30684	4530	1
0	30693	4532	1
0	30709	4536	1
0	30735	4543	1
0	30749	4545	1
0	30789	4554	1
0	30801	4555	1
0	30811	4556	1
0	30818	4557	1
0	30833	4560	3
0	30862	4565	1
0	30897	4572	1
0	30940	4579	1
0	30955	4580	1
0	30977	4582	1
0	31007	4586	1
0	31031	4589	1
0	31126	4603	1
0	31137	4606	1
0	31147	4607	1
0	31169	4612	1
0	31191	4617	1
0	31243	4624	1
0	31262	4626	1
0	31315	4633	1
0	31326	4634	2
0	31335	4635	3
0	31342	4636	1
0	31386	4643	1
0	31422	4647	1
0	31447	4650	1
0	31458	4651	1
0	31469	4652	1
0	31542	4662	1
0	31559	4664	1
0	31604	4670	1
0	31624	4673	1
0	31664	4677	1
0	31689	4680	1
0	31720	4684	1
0	31766	4690	1
0	31779	4691	1
0	31791	4692	1
0	31822	4696	1
0	31834	4697	1
0	31847	4698	2
0	31866	4700	1
0	31878	4701	2
0	31889	4702	2
0	31912	4705	4
0	31934	4711	1
0	31962	4716	1
0	31983	4718	1
0	32008	4721	1
0	32018	4722	2
0	32030	4724	1
0	32083	4738	1
0	32090	4739	1
0	32110	4742	1
0	32134	4745	1
0	32164	4751	1
0	32216	4761	1
0	32257	4771	1
0	32267	4772	2
0	32274	4773	2
0	32280	4774	2
0	32291	4776	1
0	32302	4777	1
0	32308	4778	2
0	32331	4781	2
0	32337	4782	2
0	32344	4783	1
0	32390	4789	1
0	32401	4790	1
0	32445	4796	1
0	32496	4805	1
0	32538	4814	1
0	32548	4815	1
0	32559	4817	1
0	32571	4819	1
0	32589	4823	1
0	32637	4832	1
0	32649	4833	2
0	32658	4834	3
0	32665	4835	4
0	32672	4836	4
0	32682	4837	3
0	32691	4838	3
0	32701	4839	3
0	32714	4842	5
0	32723	4843	5
0	32798	4853	1
0	32817	4855	1
0	32833	4857	1
0	32844	4859	1
0	32860	4863	1
0	32867	4864	1
0	32906	4870	1
0	32938	4878	1
0	32949	4879	2
0	32980	4884	1
0	32998	4886	1
0	33012	4889	1
0	33067	4899	1
0	33172	4915	1
0	33196	4920	1
0	33216	4922	1
0	33249	4926	1
0	33261	4927	1
0	33289	4930	3
0	33301	4931	1
0	33318	4933	1
0	33328	4934	1
0	33347	4936	1
0	33418	4949	1
0	33429	4951	1
0	33463	4959	1
0	33482	4962	1
0	33494	4963	1
0	33503	4964	2
0	33537	4972	1
0	33553	4973	1
0	33565	4974	1
0	33578	4975	1
0	33588	4976	2
0	33613	4979	1
0	33631	4981	1
0	33643	4982	1
0	33661	4984	1
0	33713	4991	1
0	33726	4994	1
0	33754	4999	1
1	2622	400	1
1	2622	400	0
1	2647	403	1
1	2647	403	0
1	2714	412	1
1	2714	412	0
1	2746	416	1
1	2746	416	0
1	2808	427	1
1	2808	427	0
1	2826	429	1
1	2826	429	0
1	2850	435	1
1	2850	435	0
1	2902	444	1
1	2902	444	0
1	2909	445	1
1	2912	445	0
1	2928	447	1
1	2928	447	0
1	2951	451	1
1	2951	451	0
1	2976	455	1
1	2976	455	0
1	3006	460	1
1	3006	460	0
1	3067	471	1
1	3067	471	0
1	3120	478	1
1	3120	478	0
1	3174	489	1
1	3174	489	0
1	3202	494	1
1	3202	494	0
1	3250	503	1
1	3250	503	0
1	3305	513	1
1	3305	513	0
1	3323	516	1
1	3323	516	0
1	3334	519	1
1	3334	519	0
1	3339	520	1
1	3343	520	0
1	3375	524	1
1	3375	524	0
1	3384	525	1
1	3387	525	0
1	3396	526	1
1	3398	526	0
1	3429	530	1
1	3429	530	0
1	3446	535	1
1	3446	535	0
1	3465	539	1
1	3465	539	0
1	3503	548	1
1	3503	548	0
1	3515	550	1
1	3515	550	0
1	3587	561	1
1	3587	561	0
1	3588	561	1
1	3597	562	0
1	3604	563	1
1	3609	563	0
1	3616	564	1
1	3617	564	2
1	3624	564	1
1	3631	565	2
1	3635	565	1
1	3642	566	2
1	3646	566	1
1	3656	567	0
1	3682	575	1
1	3682	575	0
1	3708	579	1
1	3708	579	0
1	3732	585	1
1	3732	585	0
1	3766	592	1
1	3766	592	0
1	3771	593	1
1	3774	593	0
1	3792	595	1
1	3792	595	0
1	3815	599	1
1	3815	599	0
1	3851	607	1
1	3851	607	0
1	3860	608	1
1	3861	608	2
1	3865	608	1
1	3877	609	0
1	3886	610	1
1	3902	612	0
1	3919	614	1
1	3919	614	0
1	3939	616	1
1	3939	616	0
1	3966	619	1
1	3966	619	0
1	3975	620	1
1	3978	620	0
1	4003	625	1
1	4003	625	0
1	4004	625	1
1	4016	626	0
1	4025	627	1
1	4027	627	0
1	4048	630	1
1	4048	630	0
1	4064	633	1
1	4064	633	0
1	4077	635	1
1	4077	635	0
1	4095	637	1
1	4095	637	0
1	4102	638	1
1	4104	638	0
1	4132	647	1
1	4132	647	0
1	4133	647	1
1	4141	648	0
1	4202	658	1
1	4202	658	0
1	4214	659	1
1	4216	659	0
1	4237	662	1
1	4237	662	0
1	4265	667	1
1	4265	667	0
1	4276	668	1
1	4279	668	0
1	4304	671	1
1	4304	671	0
1	4311	672	1
1	4313	672	0
1	4326	676	1
1	4326	676	0
1	4331	677	1
1	4333	677	0
1	4374	686	1
1	4374	686	0
1	4415	691	1
1	4415	691	0
1	4444	695	1
1	4444	695	0
1	4475	699	1
1	4475	699	0
1	4502	704	1
1	4502	704	0
1	4503	704	1
1	4512	705	2
1	4514	705	1
1	4525	706	0
1	4543	708	1
1	4543	708	0
1	4577	712	1
1	4577	712	0
1	4592	714	1
1	4592	714	0
1	4597	715	1
1	4599	715	0
1	4623	722	1
1	4623	722	0
1	4624	722	1
1	4630	723	0
1	4641	726	1
1	4641	726	0
1	4665	729	1
1	4665	729	0
1	4695	732	1
1	4695	732	0
1	4711	734	1
1	4719	735	0
1	4734	737	1
1	4734	737	0
1	4739	738	1
1	4741	738	0
1	4750	740	1
1	4750	740	0
1	4755	741	1
1	4757	741	0
1	4766	743	1
1	4766	743	0
1	4767	743	1
1	4778	744	0
1	4821	751	1
1	4821	751	0
1	4831	752	1
1	4833	752	0
1	4842	753	1
1	4843	753	2
1	4845	753	1
1	4852	754	2
1	4854	754	1
1	4860	755	0
1	4865	756	1
1	4867	756	0
1	4872	757	1
1	4874	757	0
1	4879	758	1
1	4880	758	2
1	4884	758	1
1	4894	759	0
1	4919	763	1
1	4919	763	0
1	4942	766	1
1	4942	766	0
1	4947	767	1
1	4949	767	0
1	4968	770	1
1	4968	770	0
1	4986	772	1
1	4992	773	0
1	5008	776	1
1	5008	776	0
1	5029	779	1
1	5029	779	0
1	5038	781	1
1	5038	781	0
1	5043	782	1
1	5045	782	0
1	5135	796	1
1	5135	796	0
1	5158	799	1
1	5158	799	0
1	5159	799	1
1	5170	800	0
1	5185	802	1
1	5185	802	0
1	5207	808	1
1	5207	808	0
1	5208	808	1
1	5214	809	0
1	5268	816	1
1	5268	816	0
1	5353	828	1
1	5353	828	0
1	5380	832	1
1	5380	832	0
1	5393	834	1
1	5393	834	0
1	5408	836	1
1	5408	836	0
1	5428	841	1
1	5428	841	0
1	5456	846	1
1	5456	846	0
1	5474	848	1
1	5474	848	0
1	5475	848	1
1	5487	849	0
1	5503	851	1
1	5512	852	0
1	5522	853	1
1	5524	853	0
1	5533	854	1
1	5537	854	0
1	5651	869	1
1	5651	869	0
1	5676	872	1
1	5676	872	0
1	5713	877	1
1	5713	877	0
1	5723	878	1
1	5725	878	0
1	5743	880	1
1	5743	880	0
1	5761	882	1
1	5761	882	0
1	5800	887	1
1	5800	887	0
1	5809	888	1
1	5810	888	2
1	5812	888	1
1	5820	889	0
1	5850	895	1
1	5850	895	0
1	5862	896	1
1	5865	896	0
1	5874	897	1
1	5875	897	2
1	5877	897	1
1	5889	898	0
1	5898	899	1
1	5902	899	0
1	5928	902	1
1	5928	902	0
1	5965	907	1
1	5965	907	0
1	5974	908	1
1	5976	908	0
1	5989	910	1
1	5995	911	0
1	5996	911	1
1	6002	912	0
1	6028	920	1
1	6028	920	0
1	6072	927	1
1	6072	927	0
1	6086	930	1
1	6086	930	0
1	6099	933	1
1	6099	933	0
1	6108	934	1
1	6109	934	2
1	6111	934	1
1	6121	935	0
1	6132	937	1
1	6132	937	0
1	6181	945	1
1	6181	945	0
1	6192	947	1
1	6192	947	0
1	6232	953	1
1	6232	953	0
1	6269	959	1
1	6269	959	0
1	6285	961	1
1	6285	961	0
1	6286	961	1
1	6287	961	2
1	6288	961	3
1	6295	962	2
1	6302	963	3
1	6303	963	4
1	6307	963	3
1	6314	964	2
1	6326	965	1
1	6340	966	0
1	6462	984	1
1	6462	984	0
1	6487	987	1
1	6487	987	0
1	6509	990	1
1	6509	990	0
1	6543	995	1
1	6543	995	0
1	6554	996	1
1	6559	996	0
1	6576	998	1
1	6576	998	0
1	6619	1003	1
1	6619	1003	0
1	6620	1003	1
1	6629	1004	2
1	6631	1004	1
1	6642	1005	0
1	6668	1008	1
1	6668	1008	0
1	6677	1009	1
1	6682	1009	0
1	6705	1012	1
1	6705	1012	0
1	6706	1012	1
1	6717	1013	0
1	6762	1019	1
1	6762	1019	0
1	6795	1024	1
1	6795	1024	0
1	6826	1031	1
1	6826	1031	0
1	6853	1037	1
1	6853	1037	0
1	6854	1037	1
1	6859	1038	2
1	6860	1038	3
1	6861	1038	4
1	6863	1038	3
1	6868	1039	4
1	6870	1039	3
1	6876	1040	2
1	6883	1041	1
1	6901	1044	0
1	6936	1050	1
1	6936	1050	0
1	6955	1052	1
1	6955	1052	0
1	6956	1052	1
1	6966	1053	0
1	6987	1056	1
1	6987	1056	0
1	7011	1059	1
1	7011	1059	0
1	7032	1064	1
1	7032	1064	0
1	7095	1073	1
1	7095	1073	0
1	7115	1075	1
1	7115	1075	0
1	7133	1077	1
1	7133	1077	0
1	7155	1080	1
1	7155	1080	0
1	7156	1080	1
1	7163	1081	0
1	7209	1093	1
1	7209	1093	0
1	7219	1094	1
1	7221	1094	0
1	7232	1096	1
1	7232	1096	0
1	7237	1097	1
1	7239	1097	0
1	7265	1101	1
1	7265	1101	0
1	7266	1101	1
1	7277	1102	0
1	7292	1104	1
1	7292	1104	0
1	7293	1104	1
1	7302	1105	2
1	7304	1105	1
1	7317	1108	0
1	7334	1110	1
1	7334	1110	0
1	7350	1113	1
1	7350	1113	0
1	7385	1118	1
1	7385	1118	0
1	7392	1119	1
1	7394	1119	0
1	7405	1122	1
1	7405	1122	0
1	7434	1129	1
1	7434	1129	0
1	7457	1133	1
1	7457	1133	0
1	7472	1135	1
1	7472	1135	0
1	7495	1138	1
1	7495	1138	0
1	7506	1140	1
1	7506	1140	0
1	7507	1140	1
1	7512	1141	2
1	7515	1141	1
1	7525	1142	0
1	7530	1143	1
1	7532	1143	0
1	7582	1152	1
1	7582	1152	0
1	7602	1154	1
1	7602	1154	0
1	7644	1160	1
1	7644	1160	0
1	7645	1160	1
1	7653	1161	0
1	7685	1168	1
1	7685	1168	0
1	7686	1168	1
1	7694	1169	0
1	7699	1170	1
1	7703	1171	2
1	7704	1171	3
1	7708	1172	2
1	7718	1173	1
1	7728	1174	0
1	7742	1176	1
1	7742	1176	0
1	7774	1181	1
1	7774	1181	0
1	7809	1187	1
1	7809	1187	0
1	7824	1189	1
1	7824	1189	0
1	7853	1193	1
1	7853	1193	0
1	7868	1195	1
1	7868	1195	0
1	7889	1197	1
1	7889	1197	0
1	7907	1199	1
1	7907	1199	0
1	7925	1201	1
1	7925	1201	0
1	7956	1205	1
1	7956	1205	0
1	7974	1207	1
1	7974	1207	0
1	8003	1211	1
1	8003	1211	0
1	8012	1212	1
1	8014	1212	0
1	8039	1216	1
1	8039	1216	0
1	8089	1227	1
1	8089	1227	0
1	8136	1237	1
1	8136	1237	0
1	8137	1237	1
1	8142	1238	2
1	8144	1238	1
1	8152	1240	2
1	8156	1241	1
1	8162	1242	0
1	8167	1243	1
1	8169	1243	0
1	8178	1245	1
1	8178	1245	0
1	8183	1246	1
1	8186	1246	0
1	8199	1248	1
1	8199	1248	0
1	8200	1248	1
1	8206	1249	0
1	8233	1253	1
1	8233	1253	0
1	8234	1253	1
1	8246	1254	0
1	8289	1263	1
1	8289	1263	0
1	8303	1265	1
1	8303	1265	0
1	8312	1266	1
1	8314	1266	0
1	8341	1270	1
1	8341	1270	0
1	8342	1270	1
1	8353	1271	2
1	8355	1271	1
1	8366	1272	0
1	8381	1274	1
1	8381	1274	0
1	8386	1275	1
1	8387	1275	2
1	8389	1275	1
1	8395	1276	0
1	8431	1283	1
1	8431	1283	0
1	8456	1286	1
1	8456	1286	0
1	8466	1287	1
1	8482	1289	0
1	8483	1289	1
1	8492	1290	2
1	8494	1290	1
1	8504	1291	0
1	8527	1295	1
1	8527	1295	0
1	8547	1299	1
1	8547	1299	0
1	8597	1306	1
1	8597	1306	0
1	8635	1311	1
1	8635	1311	0
1	8653	1313	1
1	8653	1313	0
1	8676	1316	1
1	8676	1316	0
1	8681	1317	1
1	8683	1317	0
1	8769	1330	1
1	8769	1330	0
1	8801	1334	1
1	8801	1334	0
1	8855	1341	1
1	8855	1341	0
1	8864	1342	1
1	8866	1342	0
1	8873	1343	1
1	8875	1343	0
1	8904	1350	1
1	8904	1350	0
1	8942	1355	1
1	8942	1355	0
1	8952	1356	1
1	8954	1356	0
1	9027	1370	1
1	9027	1370	0
1	9034	1371	1
1	9036	1371	0
1	9054	1377	1
1	9054	1377	0
1	9055	1377	1
1	9061	1378	0
1	9070	1380	1
1	9070	1380	0
1	9071	1380	1
1	9081	1381	2
1	9083	1381	1
1	9092	1382	2
1	9094	1382	1
1	9104	1383	0
1	9144	1388	1
1	9144	1388	0
1	9213	1400	1
1	9213	1400	0
1	9224	1402	1
1	9224	1402	0
1	9289	1411	1
1	9289	1411	0
1	9343	1418	1
1	9343	1418	0
1	9366	1421	1
1	9366	1421	0
1	9380	1422	1
1	9381	1422	2
1	9383	1422	1
1	9394	1423	0
1	9437	1429	1
1	9437	1429	0
1	9446	1430	1
1	9448	1430	0
1	9459	1432	1