version 3
run Experimentos-759-20260508-20:06:15-31633
attr configname Experimentos
attr datetime 20260508-20:06:15
attr datetimef 20260508-200615
attr experiment Experimentos
attr inifile TwoQueues.ini
attr iterationvars "$p=0.7, $q=0.3, $Y=10, $m=3"
attr iterationvarsd p=0.7/q=0.3/Y=10/m=3
attr iterationvarsf p=0.7,q=0.3,Y=10,m=3-
attr measurement "$p=0.7, $q=0.3, $Y=10, $m=3"
attr network TwoQueues
attr processid 31633
attr repetition 19
attr replication #19
attr resultdir results
attr runnumber 759
attr seedset 759
itervar Y 10
itervar m 3
itervar p 0.7
itervar q 0.3
config description "Barrido completo de parámetros Proyecto 12"
config **.source1.p 0.7
config **.source1.q 0.2
config **.source2.p 0.6
config **.source2.q 0.3
config **.serverWithMaintenance.Y 10
config **.serverWithMaintenance.m 3
config network TwoQueues
config cpu-time-limit 5000s
config sim-time-limit 5000s
config warmup-period 400s
config repeat 20
config output-scalar-file results/Experimentos-p=0.7,q=0.3,Y=10,m=3--#19.sca
config output-vector-file results/Experimentos-p=0.7,q=0.3,Y=10,m=3--#19.vec
config **.vector-recording true

vector 0 TwoQueues.serverWithMaintenance residenceTime2:vector ETV
attr recordingmode vector
attr source delay2
attr title "Residence Time Class 2"
vector 1 TwoQueues.queue2 queueLengthStats:vector ETV
attr recordingmode vector
attr source qlen
attr title "Average Queue Length"
vector 2 TwoQueues.queue1 queueLengthStats:vector ETV
attr recordingmode vector
attr source qlen
attr title "Average Queue Length"
vector 3 TwoQueues.server residenceTime1:vector ETV
attr recordingmode vector
attr source delay1
attr title "Residence Time Class 1"
vector 4 TwoQueues.server throughputStats1:vector ETV
attr recordingmode vector
attr source throughput1
attr title "Throughput Class 1"
0	2369	400	1
0	2384	402	1
0	2390	403	2
0	2412	409	1
0	2438	413	2
0	2466	418	1
0	2475	420	1
0	2495	425	1
0	2528	431	1
0	2565	436	1
0	2577	437	1
0	2586	438	2
0	2598	440	1
0	2616	443	1
0	2642	447	4
0	2649	448	4
0	2659	449	5
0	2668	450	3
0	2678	451	3
0	2686	452	3
0	2692	453	3
0	2701	455	1
0	2714	459	1
0	2721	460	1
0	2743	464	2
0	2762	466	1
0	2772	467	2
0	2778	468	2
0	2785	469	1
0	2801	471	1
0	2834	476	1
0	2843	478	1
0	2885	489	1
0	2895	490	1
0	2918	495	1
0	2937	502	1
0	3020	521	1
0	3108	547	1
0	3114	548	2
0	3148	555	1
0	3175	561	1
0	3186	564	1
0	3205	567	1
0	3215	568	2
0	3229	572	5
0	3237	573	2
0	3243	574	2
0	3249	575	3
0	3258	577	1
0	3267	579	1
0	3285	585	1
0	3293	586	2
0	3300	587	2
0	3306	588	3
0	3320	592	6
0	3327	593	5
0	3333	594	2
0	3365	599	1
0	3395	606	1
0	3404	607	2
0	3416	610	1
0	3423	611	2
0	3429	612	2
0	3465	623	1
0	3504	628	1
0	3518	631	1
0	3531	635	1
0	3540	637	1
0	3549	639	1
0	3558	641	1
0	3574	644	1
0	3610	652	1
0	3626	655	1
0	3639	658	1
0	3657	662	4
0	3663	663	2
0	3670	664	1
0	3688	668	1
0	3709	671	1
0	3723	673	1
0	3803	688	1
0	3819	691	1
0	3826	692	1
0	3890	703	1
0	3933	710	1
0	3960	716	1
0	3988	724	1
0	4033	735	1
0	4049	738	1
0	4056	739	1
0	4067	740	1
0	4135	751	1
0	4154	754	1
0	4167	755	1
0	4196	759	5
0	4206	760	6
0	4212	761	3
0	4218	762	3
0	4225	763	1
0	4235	764	1
0	4265	769	1
0	4296	775	1
0	4309	776	1
0	4339	780	1
0	4365	784	4
0	4379	787	1
0	4386	788	1
0	4402	791	1
0	4412	792	1
0	4459	802	1
0	4474	807	1
0	4485	809	1
0	4501	813	1
0	4517	816	1
0	4545	820	3
0	4555	821	2
0	4576	824	1
0	4586	825	1
0	4617	832	1
0	4627	833	1
0	4647	838	1
0	4654	839	1
0	4681	845	1
0	4688	846	1
0	4707	850	2
0	4718	851	1
0	4747	856	1
0	4780	861	1
0	4786	862	2
0	4793	863	1
0	4807	864	1
0	4823	866	1
0	4849	871	1
0	4858	873	1
0	4874	877	3
0	4884	878	2
0	4896	879	3
0	4906	880	3
0	4926	885	1
0	4958	890	1
0	4976	895	1
0	4985	896	2
0	4999	900	1
0	5008	901	2
0	5026	905	4
0	5038	906	1
0	5052	908	1
0	5069	910	1
0	5092	915	1
0	5108	917	1
0	5148	922	1
0	5160	923	1
0	5172	924	1
0	5195	927	1
0	5229	931	4
0	5235	932	5
0	5244	933	4
0	5263	939	1
0	5274	941	1
0	5284	942	1
0	5302	945	1
0	5314	947	1
0	5322	948	1
0	5328	949	2
0	5362	953	4
0	5374	954	3
0	5385	955	2
0	5396	956	1
0	5414	958	1
0	5430	961	1
0	5442	963	1
0	5451	965	1
0	5460	967	1
0	5490	976	1
0	5507	980	4
0	5518	982	1
0	5532	983	1
0	5586	992	1
0	5593	993	1
0	5609	995	1
0	5639	1001	1
0	5648	1003	1
0	5677	1010	1
0	5702	1015	1
0	5720	1019	4
0	5727	1020	5
0	5733	1021	5
0	5739	1022	4
0	5746	1023	5
0	5752	1024	5
0	5758	1025	3
0	5774	1028	1
0	5791	1033	1
0	5805	1035	1
0	5855	1043	1
0	5866	1044	1
0	5902	1049	1
0	5918	1052	1
0	5934	1054	1
0	5970	1062	1
0	5982	1064	1
0	6044	1080	1
0	6055	1083	1
0	6063	1084	1
0	6077	1088	5
0	6088	1089	2
0	6100	1090	2
0	6112	1091	3
0	6123	1092	1
0	6140	1095	1
0	6151	1096	1
0	6162	1097	2
0	6205	1104	1
0	6219	1106	1
0	6240	1112	1
0	6263	1116	1
0	6270	1117	1
0	6281	1119	1
0	6324	1128	1
0	6337	1130	1
0	6343	1131	2
0	6352	1133	1
0	6376	1139	1
0	6402	1143	1
0	6419	1147	4
0	6477	1157	1
0	6485	1158	2
0	6496	1159	2
0	6509	1160	3
0	6519	1161	3
0	6529	1162	3
0	6540	1164	1
0	6558	1168	1
0	6577	1171	1
0	6598	1175	5
0	6609	1178	1
0	6617	1179	1
0	6630	1180	2
0	6640	1181	2
0	6652	1182	1
0	6680	1186	1
0	6687	1187	1
0	6694	1188	1
0	6714	1191	1
0	6740	1195	5
0	6746	1196	5
0	6796	1211	1
0	6809	1214	1
0	6828	1217	1
0	6839	1220	1
0	6846	1221	1
0	6916	1236	1
0	6952	1244	1
0	6959	1245	1
0	6994	1251	1
0	7012	1255	1
0	7034	1258	1
0	7052	1261	1
0	7064	1263	1
0	7075	1264	1
0	7092	1266	1
0	7102	1267	1
0	7115	1269	1
0	7139	1272	1
0	7160	1276	4
0	7166	1277	4
0	7173	1278	5
0	7183	1279	2
0	7202	1282	1
0	7211	1283	2
0	7219	1284	3
0	7228	1286	1
0	7243	1291	1
0	7259	1293	1
0	7276	1297	3
0	7285	1299	1
0	7301	1302	1
0	7327	1306	1
0	7339	1307	1
0	7372	1311	1
0	7381	1312	2
0	7408	1317	1
0	7424	1321	1
0	7434	1323	1
0	7454	1327	5
0	7460	1328	5
0	7466	1329	4
0	7488	1333	1
0	7514	1336	1
0	7525	1337	1
0	7543	1340	1
0	7550	1341	1
0	7560	1343	1
0	7566	1344	2
0	7581	1348	4
0	7591	1349	5
0	7599	1350	2
0	7608	1352	1
0	7626	1355	1
0	7643	1359	1
0	7649	1360	2
0	7679	1366	1
0	7692	1367	1
0	7703	1368	1
0	7738	1372	4
0	7752	1373	4
0	7763	1374	5
0	7774	1375	3
0	7785	1376	4
0	7794	1377	5
0	7801	1378	1
0	7817	1380	1
0	7835	1383	1
0	7847	1384	2
0	7868	1388	5
0	7874	1389	3
0	7892	1393	1
0	7915	1397	1
0	7940	1402	1
0	7958	1404	1
0	8000	1410	1
0	8042	1415	1
0	8065	1418	1
0	8091	1421	1
0	8124	1425	3
0	8134	1426	1
0	8153	1433	1
0	8200	1443	1
0	8213	1445	1
0	8220	1446	2
0	8227	1447	2
0	8233	1448	2
0	8242	1450	1
0	8252	1451	1
0	8281	1459	1
0	8313	1465	1
0	8333	1469	1
0	8356	1472	1
0	8376	1474	1
0	8388	1475	2
0	8398	1476	2
0	8438	1484	1
0	8451	1485	1
0	8487	1492	1
0	8518	1501	1
0	8536	1505	1
0	8548	1507	1
0	8567	1510	1
0	8592	1514	1
0	8621	1518	1
0	8654	1522	1
0	8684	1526	1
0	8696	1527	2
0	8707	1528	1
0	8735	1532	4
0	8746	1533	5
0	8754	1534	2
0	8760	1535	3
0	8772	1537	1
0	8790	1540	1
0	8799	1542	1
0	8821	1548	1
0	8851	1553	1
0	8874	1556	1
0	8892	1560	2
0	8898	1561	2
0	8905	1562	1
0	8914	1564	1
0	8936	1570	1
0	8953	1576	1
0	8961	1577	1
0	8967	1578	2
0	9030	1591	1
0	9080	1600	1
0	9113	1604	2
0	9124	1605	3
0	9136	1607	1
0	9150	1609	1
0	9163	1613	1
0	9181	1617	1
0	9191	1618	1
0	9210	1623	1
0	9240	1628	1
0	9256	1632	1
0	9288	1636	4
0	9297	1637	4
0	9309	1639	1
0	9319	1640	2
0	9329	1641	2
0	9337	1642	2
0	9344	1643	1
0	9357	1647	1
0	9389	1652	1
0	9401	1654	1
0	9415	1658	2
0	9427	1660	1
0	9444	1662	1
0	9450	1663	2
0	9483	1668	1
0	9529	1674	1
0	9556	1677	1
0	9574	1679	1
0	9588	1681	1
0	9600	1683	1
0	9624	1687	1
0	9644	1692	1
0	9658	1693	1
0	9670	1694	2
0	9688	1696	1
0	9699	1697	2
0	9710	1698	1
0	9729	1700	1
0	9740	1701	1
0	9760	1703	1
0	9792	1708	1
0	9808	1713	1
0	9818	1714	2
0	9826	1715	2
0	9847	1718	1
0	9876	1722	1
0	9882	1723	2
0	9896	1725	1
0	9907	1726	1
0	9949	1734	1
0	9963	1738	3
0	10024	1751	1
0	10055	1760	1
0	10064	1761	2
0	10073	1763	1
0	10080	1764	1
0	10098	1767	1
0	10108	1768	1
0	10115	1769	1
0	10135	1773	1
0	10152	1777	4
0	10172	1782	1
0	10181	1784	1
0	10193	1787	1
0	10199	1788	2
0	10206	1789	1
0	10217	1792	1
0	10260	1801	1
0	10291	1807	1
0	10302	1808	1
0	10340	1813	1
0	10384	1824	1
0	10394	1825	1
0	10419	1829	1
0	10449	1835	1
0	10467	1837	1
0	10494	1841	1
0	10505	1842	1
0	10517	1844	1
0	10552	1852	1
0	10625	1866	1
0	10644	1868	1
0	10708	1884	1
0	10724	1886	1
0	10735	1887	1
0	10742	1888	2
0	10751	1889	2
0	10763	1890	1
0	10852	1907	1
0	10858	1908	2
0	10875	1912	6
0	10881	1913	7
0	10898	1914	6
0	10908	1915	5
0	10918	1916	5
0	10929	1917	6
0	10939	1918	2
0	10962	1921	1
0	10984	1924	1
0	10993	1926	1
0	11009	1930	2
0	11027	1935	1
0	11038	1938	1
0	11053	1941	1
0	11084	1945	1
0	11099	1947	1
0	11130	1954	1
0	11150	1959	1
0	11159	1961	1
0	11177	1963	1
0	11210	1967	1
0	11221	1968	1
0	11231	1969	1
0	11254	1974	1
0	11266	1975	2
0	11276	1976	2
0	11285	1977	2
0	11299	1979	1
0	11315	1981	1
0	11338	1984	1
0	11362	1988	1
0	11385	1992	1
0	11412	1998	1
0	11427	2001	1
0	11437	2002	2
0	11445	2003	2
0	11462	2008	1
0	11484	2011	1
0	11510	2014	1
0	11531	2016	1
0	11563	2020	5
0	11573	2021	2
0	11579	2022	2
0	11611	2028	1
0	11620	2030	1
0	11629	2032	1
0	11647	2038	1
0	11653	2039	2
0	11705	2050	1
0	11716	2052	1
0	11735	2056	1
0	11755	2062	1
0	11762	2063	1
0	11776	2065	1
0	11790	2067	1
0	11799	2069	1
0	11806	2070	1
0	11822	2073	1
0	11860	2081	1
0	11872	2083	1
0	11886	2087	3
0	11898	2088	1
0	11906	2089	2
0	11912	2090	3
0	11925	2093	1
0	11944	2096	1
0	11975	2103	1
0	11989	2105	1
0	11999	2106	1
0	12019	2111	1
0	12074	2128	1
0	12085	2131	1
0	12118	2140	1
0	12150	2146	1
0	12159	2148	1
0	12168	2150	1
0	12175	2151	1
0	12212	2162	1
0	12220	2163	1
0	12226	2164	2
0	12240	2168	2
0	12247	2169	1
0	12272	2174	1
0	12288	2176	1
0	12300	2178	1
0	12309	2180	1
0	12335	2188	1
0	12365	2193	1
0	12381	2196	1
0	12391	2197	1
0	12408	2201	1
0	12414	2202	2
0	12437	2206	1
0	12457	2210	1
0	12469	2212	1
0	12483	2214	1
0	12563	2229	1
0	12577	2233	1
0	12589	2234	2
0	12599	2235	2
0	12615	2239	6
0	12621	2240	2
0	12646	2246	1
0	12658	2247	1
0	12669	2248	1
0	12688	2250	1
0	12732	2258	1
0	12746	2260	1
0	12768	2266	1
0	12783	2271	1
0	12802	2275	1
0	12831	2278	1
0	12841	2279	2
0	12879	2284	1
0	12897	2286	1
0	12908	2287	1
0	12919	2288	1
0	12926	2289	2
0	12932	2290	2
0	12947	2295	1
0	12970	2301	1
0	12987	2303	1
0	13003	2305	1
0	13014	2307	1
0	13026	2308	1
0	13045	2310	1
0	13077	2322	1
0	13105	2331	1
0	13154	2342	1
0	13243	2359	1
0	13268	2363	3
0	13277	2364	3
0	13294	2366	1
0	13304	2367	2
0	13311	2368	2
0	13318	2369	2
0	13324	2370	2
0	13345	2374	1
0	13357	2375	1
0	13368	2376	1
0	13393	2380	1
0	13409	2382	1
0	13436	2386	1
0	13461	2389	1
0	13472	2390	1
0	13504	2398	1
0	13537	2402	1
0	13564	2407	1
0	13575	2410	1
0	13628	2420	1
0	13664	2424	3
0	13673	2425	4
0	13679	2426	5
0	13686	2427	4
0	13695	2428	2
0	13704	2429	1
0	13717	2433	1
0	13753	2439	1
0	13771	2441	1
0	13792	2444	1
0	13865	2454	1
0	13882	2456	1
0	13891	2457	2
0	13910	2461	1
0	13916	2462	2
0	13927	2463	1
0	13958	2468	1
0	13983	2473	1
0	13999	2476	1
0	14022	2479	1
0	14048	2483	2
0	14059	2484	3
0	14070	2485	3
0	14080	2486	1
0	14088	2487	1
0	14094	2488	2
0	14131	2496	1
0	14137	2497	2
0	14148	2499	1
0	14160	2501	1
0	14175	2505	2
0	14181	2506	3
0	14193	2507	1
0	14205	2508	1
0	14215	2509	2
0	14231	2511	1
0	14249	2515	1
0	14277	2519	1
0	14288	2520	1
0	14317	2524	1
0	14346	2532	1
0	14356	2533	1
0	14380	2536	1
0	14398	2538	1
0	14419	2542	1
0	14454	2547	1
0	14465	2549	1
0	14477	2551	1
0	14490	2555	1
0	14506	2558	1
0	14542	2563	1
0	14558	2566	1
0	14606	2574	1
0	14639	2583	1
0	14649	2584	1
0	14663	2586	1
0	14687	2590	1
0	14693	2591	2
0	14722	2597	1
0	14759	2603	1
0	14787	2607	3
0	14795	2608	3
0	14805	2609	2
0	14813	2610	3
0	14823	2611	3
0	14842	2615	1
0	14849	2616	1
0	14884	2625	1
0	14925	2634	1
0	14961	2640	1
0	14987	2644	5
0	14993	2645	2
0	15022	2650	1
0	15062	2658	1
0	15101	2663	1
0	15120	2666	1
0	15132	2668	1
0	15141	2669	2
0	15152	2671	1
0	15164	2672	1
0	15219	2685	1
0	15230	2687	1
0	15258	2692	1
0	15265	2693	1
0	15276	2696	1
0	15292	2699	1
0	15310	2702	1
0	15323	2703	1
0	15365	2709	1
0	15380	2710	1
0	15398	2714	5
0	15405	2715	6
0	15414	2716	7
0	15427	2717	8
0	15439	2718	8
0	15449	2719	7
0	15462	2720	6
0	15472	2721	5
0	15484	2722	3
0	15493	2723	2
0	15509	2727	6
0	15518	2728	6
0	15524	2729	6
0	15552	2737	1
0	15564	2739	1
0	15614	2749	1
0	15640	2757	1
0	15665	2763	1
0	15688	2766	1
0	15739	2777	1
0	15764	2781	4
0	15775	2783	1
0	15801	2788	1
0	15819	2790	1
0	15844	2793	1
0	15854	2794	2
0	15878	2798	1
0	15895	2800	1
0	15904	2801	2
0	15913	2803	1
0	15937	2808	1
0	15967	2812	1
0	15980	2815	1
0	16010	2821	1
0	16028	2824	1
0	16044	2828	1
0	16055	2831	1
0	16064	2833	1
0	16074	2834	1
0	16083	2835	1
0	16103	2839	3
0	16112	2840	4
0	16143	2846	1
0	16185	2858	1
0	16196	2861	1
0	16219	2864	1
0	16235	2868	1
0	16256	2871	1
0	16295	2877	1
0	16314	2879	1
0	16350	2883	3
0	16360	2884	4
0	16379	2887	1
0	16388	2889	1
0	16395	2890	1
0	16442	2898	1
0	16451	2899	2
0	16463	2900	1
0	16474	2902	1
0	16501	2908	1
0	16538	2913	1
0	16544	2914	2
0	16579	2920	1
0	16604	2924	1
0	16612	2925	1
0	16618	2926	2
0	16639	2929	1
0	16675	2935	1
0	16705	2942	1
0	16714	2944	1
0	16733	2948	1
0	16756	2952	1
0	16772	2955	1
0	16785	2958	1
0	16804	2961	1
0	16811	2962	1
0	16834	2966	1
0	16841	2967	1
0	16848	2968	1
0	16878	2973	1
0	16893	2977	4
0	16900	2978	4
0	16907	2979	2
0	16913	2980	2
0	16926	2984	1
0	16952	2988	1
0	16968	2990	1
0	16977	2992	1
0	16988	2994	1
0	17023	2998	1
0	17048	3002	5
0	17058	3003	1
0	17070	3004	1
0	17083	3006	1
0	17099	3009	1
0	17111	3011	1
0	17120	3013	1
0	17150	3020	1
0	17159	3021	2
0	17174	3025	1
0	17199	3031	1
0	17271	3043	1
0	17287	3046	1
0	17304	3048	1
0	17324	3050	1
0	17346	3053	1
0	17389	3060	1
0	17401	3061	1
0	17412	3062	1
0	17456	3069	1
0	17503	3076	1
0	17510	3077	1
0	17540	3082	1
0	17556	3084	1
0	17587	3093	1
0	17602	3097	1
0	17616	3100	1
0	17641	3103	1
0	17658	3105	1
0	17679	3108	1
0	17704	3112	3
0	17717	3113	2
0	17727	3114	2
0	17741	3116	1
0	17751	3117	1
0	17764	3121	1
0	17793	3125	1
0	17822	3129	1
0	17875	3136	1
0	17911	3141	1
0	17935	3145	4
0	17941	3146	2
0	17947	3147	3
0	17960	3150	1
0	17982	3156	1
0	18036	3168	1
0	18049	3169	1
0	18059	3170	2
0	18069	3171	2
0	18077	3172	2
0	18097	3176	3
0	18108	3177	3
0	18122	3178	1
0	18150	3182	1
0	18181	3190	1
0	18203	3197	1
0	18229	3202	1
0	18235	3203	2
0	18254	3206	1
0	18278	3212	1
0	18298	3216	2
0	18304	3217	2
0	18317	3221	1
0	18324	3222	1
0	18368	3230	1
0	18384	3232	1
0	18391	3233	1
0	18411	3236	1
0	18423	3237	2
0	18447	3240	1
0	18469	3244	2
0	18493	3247	1
0	18562	3257	1
0	18574	3258	1
0	18599	3266	1
0	18609	3267	2
0	18621	3268	1
0	18643	3271	1
0	18650	3272	1
0	18679	3279	1
0	18700	3284	1
0	18713	3288	1
0	18781	3298	1
0	18790	3299	2
0	18810	3303	1
0	18829	3306	1
0	18872	3315	1
0	18915	3324	1
0	18922	3325	1
0	18929	3326	1
0	18956	3331	1
0	18962	3332	2
0	18978	3334	1
0	19041	3344	1
0	19061	3349	1
0	19096	3358	1
0	19122	3361	1
0	19132	3362	1
0	19147	3366	1
0	19167	3368	1
0	19193	3372	2
0	19224	3379	1
0	19234	3380	1
0	19243	3382	1
0	19282	3389	1
0	19308	3392	1
0	19318	3393	2
0	19329	3394	1
0	19354	3401	1
0	19366	3402	1
0	19401	3406	4
0	19411	3407	5
0	19461	3418	1
0	19472	3420	1
0	19493	3424	1
0	19521	3428	1
0	19539	3432	1
0	19597	3445	1
0	19631	3449	1
0	19670	3454	1
0	19705	3458	4
0	19763	3466	1
0	19774	3467	1
0	19788	3468	1
0	19807	3470	1
0	19836	3474	1
0	19848	3475	1
0	19869	3479	1
0	19876	3480	1
0	19891	3485	1
0	19931	3492	1
0	19942	3494	1
0	19954	3496	1
0	19998	3508	1
0	20014	3511	1
0	20024	3512	1
0	20043	3515	1
0	20049	3516	2
0	20056	3517	1
0	20067	3518	1
0	20138	3529	1
0	20150	3530	1
0	20165	3532	1
0	20177	3533	1
0	20186	3534	2
0	20206	3539	1
0	20224	3543	1
0	20289	3557	1
0	20301	3559	1
0	20314	3562	1
0	20354	3570	1
0	20363	3572	1
0	20374	3575	1
0	20383	3577	1
0	20425	3588	1
0	20435	3589	1
0	20451	3591	1
0	20473	3597	1
0	20503	3607	1
0	20530	3613	1
0	20551	3617	3
0	20565	3620	1
0	20574	3622	1
0	20583	3624	1
0	20601	3627	1
0	20643	3634	1
0	20656	3638	1
0	20663	3639	1
0	20670	3640	1
0	20685	3645	1
0	20738	3661	1
0	20745	3662	1
0	20807	3675	1
0	20813	3676	2
0	20830	3682	1
0	20855	3687	1
0	20864	3689	1
0	20892	3699	1
0	20910	3702	1
0	20926	3704	1
0	20943	3708	2
0	20954	3709	1
0	20962	3710	2
0	20973	3713	1
0	20990	3719	1
0	21036	3726	1
0	21061	3732	1
0	21074	3736	1
0	21095	3740	1
0	21130	3746	1
0	21156	3750	5
0	21167	3751	2
0	21177	3752	1
0	21188	3755	1
0	21197	3757	1
0	21208	3760	1
0	21217	3762	1
0	21225	3763	1
0	21231	3764	2
0	21238	3765	1
0	21270	3769	2
0	21300	3775	1
0	21306	3776	2
0	21321	3780	1
0	21338	3783	1
0	21350	3784	2
0	21367	3786	1
0	21373	3787	2
0	21400	3793	1
0	21407	3794	1
0	21442	3801	1
0	21451	3802	1
0	21458	3803	2
0	21467	3804	3
0	21475	3805	3
0	21485	3806	1
0	21502	3811	1
0	21512	3812	1
0	21544	3821	1
0	21568	3824	1
0	21584	3828	3
0	21594	3829	1
0	21644	3838	1
0	21658	3839	1
0	21669	3840	1
0	21687	3842	1
0	21729	3848	1
0	21754	3854	1
0	21778	3860	1
0	21790	3862	1
0	21808	3866	2
0	21836	3872	1
0	21867	3876	1
0	21908	3882	1
0	21918	3883	1
0	21925	3884	1
0	21939	3887	1
0	21955	3889	1
0	22015	3898	1
0	22047	3907	1
0	22068	3911	5
0	22077	3912	4
0	22084	3913	1
0	22098	3915	1
0	22125	3921	1
0	22161	3928	1
0	22172	3929	1
0	22178	3930	2
0	22187	3932	1
0	22196	3934	1
0	22217	3938	2
0	22233	3942	1
0	22272	3948	1
0	22286	3950	1
0	22329	3960	1
0	22363	3972	1
0	22377	3974	1
0	22390	3978	1
0	22401	3981	1
0	22417	3984	1
0	22440	3990	1
0	22465	3997	1
0	22471	3998	2
0	22480	4000	1
0	22492	4001	1
0	22504	4002	2
0	22514	4003	2
0	22532	4006	1
0	22549	4008	1
0	22558	4009	2
0	22585	4013	1
0	22603	4016	1
0	22610	4017	1
0	22619	4018	1
0	22628	4019	2
0	22642	4020	3
0	22652	4021	2
0	22663	4022	1
0	22675	4023	1
0	22686	4025	1
0	22705	4029	4
0	22734	4036	1
0	22744	4038	1
0	22751	4039	2
0	22758	4040	2
0	22765	4041	2
0	22771	4042	2
0	22789	4045	1
0	22823	4052	1
0	22836	4053	1
0	22885	4066	1
0	22907	4072	1
0	22917	4073	1
0	22930	4075	1
0	22942	4076	1
0	22956	4078	1
0	22968	4079	1
0	22996	4085	1
0	23012	4087	1
0	23090	4100	1
0	23113	4107	1
0	23126	4109	1
0	23143	4111	1
0	23164	4115	1
0	23199	4120	1
0	23216	4122	1
0	23248	4127	1
0	23260	4129	1
0	23276	4131	1
0	23291	4136	1
0	23317	4140	2
0	23329	4142	1
0	23361	4149	1
0	23388	4152	1
0	23406	4154	1
0	23422	4156	1
0	23436	4158	1
0	23457	4161	1
0	23475	4163	1
0	23486	4164	1
0	23507	4168	4
0	23520	4172	1
0	23530	4173	1
0	23543	4174	1
0	23555	4175	1
0	23563	4176	2
0	23598	4181	1
0	23614	4184	1
0	23624	4185	1
0	23637	4188	1
0	23651	4192	1
0	23679	4196	1
0	23688	4198	1
0	23695	4199	1
0	23707	4201	1
0	23716	4202	2
0	23725	4204	1
0	23750	4209	1
0	23772	4215	1
0	23780	4216	1
0	23805	4220	5
0	23811	4221	5
0	23817	4222	4
0	23827	4223	1
0	23851	4226	1
0	23857	4227	2
0	23870	4230	1
0	23901	4236	1
0	23910	4237	2
0	23922	4238	1
0	23943	4242	4
0	24002	4253	1
0	24034	4260	1
0	24047	4264	1
0	24057	4266	1
0	24063	4267	2
0	24088	4270	1
0	24112	4273	1
0	24142	4278	1
0	24164	4285	1
0	24189	4289	3
0	24199	4290	3
0	24231	4296	1
0	24241	4297	2
0	24279	4303	1
0	24291	4304	2
0	24302	4305	2
0	24312	4306	1
0	24338	4310	1
0	24347	4311	2
0	24370	4315	4
0	24381	4316	5
0	24392	4317	5
0	24404	4318	1
0	24414	4319	1
0	24423	4321	1
0	24432	4323	1
0	24448	4326	1
0	24459	4329	1
0	24472	4333	1
0	24495	4337	3
0	24505	4338	3
0	24512	4339	3
0	24518	4340	3
0	24524	4341	3
0	24531	4342	1
0	24547	4345	1
0	24567	4350	1
0	24585	4354	1
0	24596	4357	1
0	24619	4362	1
0	24629	4363	1
0	24661	4370	1
0	24672	4371	1
0	24698	4374	1
0	24721	4378	1
0	24748	4385	1
0	24769	4393	1
0	24797	4397	1
0	24806	4399	1
0	24834	4403	2
0	24844	4404	3
0	24893	4416	1
0	24903	4417	1
0	24915	4420	1
0	24921	4421	2
0	24941	4426	1
0	24954	4429	1
0	24976	4435	1
0	24987	4436	1
0	25010	4440	5
0	25021	4441	5
0	25030	4442	3
0	25036	4443	4
0	25047	4446	1
0	25057	4447	1
0	25068	4449	1
0	25075	4450	1
0	25083	4451	1
0	25092	4452	2
0	25116	4456	3
0	25125	4457	2
0	25152	4463	1
0	25159	4464	1
0	25195	4472	1
0	25202	4473	1
0	25261	4486	1
0	25272	4487	1
0	25337	4499	1
0	25347	4500	2
0	25363	4504	5
0	25372	4505	2
0	25392	4509	1
0	25402	4510	1
0	25418	4513	1
0	25427	4515	1
0	25474	4524	1
0	25489	4525	1
0	25513	4528	1
0	25543	4532	1
0	25575	4536	4
0	25585	4537	3
0	25591	4538	3
0	25597	4539	4
0	25606	4540	4
0	25623	4542	1
0	25630	4543	2
0	25636	4544	2
0	25671	4549	1
0	25681	4550	1
0	25708	4554	4
0	25714	4555	4
0	25731	4557	1
0	25756	4560	1
0	25769	4561	1
0	25778	4562	2
0	25785	4563	1
0	25801	4565	1
0	25812	4566	2
0	25822	4567	3
0	25847	4571	6
0	25857	4572	4
0	25866	4573	4
0	25882	4575	1
0	25895	4577	1
0	25902	4578	2
0	25911	4579	2
0	25924	4580	1
0	25935	4581	1
0	25950	4584	1
0	25969	4588	3
0	25975	4589	3
0	25984	4590	3
0	26020	4597	1
0	26033	4601	1
0	26049	4604	1
0	26101	4615	1
0	26114	4619	1
0	26131	4625	1
0	26138	4626	1
0	26162	4630	4
0	26303	4658	1
0	26329	4662	1
0	26367	4669	1
0	26381	4671	1
0	26401	4673	1
0	26410	4674	2
0	26458	4683	1
0	26482	4690	1
0	26492	4691	1
0	26515	4695	3
0	26529	4698	1
0	26573	4710	1
0	26583	4711	1
0	26607	4714	1
0	26613	4715	2
0	26620	4716	1
0	26636	4719	1
0	26650	4721	1
0	26657	4722	1
0	26671	4726	3
0	26698	4732	1
0	26706	4733	1
0	26712	4734	2
0	26762	4744	1
0	26784	4750	1
0	26795	4753	1
0	26803	4754	1
0	26812	4755	2
0	26821	4756	1
0	26842	4760	4
0	26849	4761	5
0	26855	4762	3
0	26864	4763	3
0	26873	4764	1
0	26889	4767	1
0	26913	4774	1
0	26959	4788	1
0	26970	4789	2
0	27026	4804	1
0	27053	4808	3
0	27063	4809	2
0	27078	4811	1
0	27145	4827	1
0	27155	4828	1
0	27173	4831	1
0	27183	4832	1
0	27201	4834	1
0	27217	4838	1
0	27250	4843	1
0	27270	4847	5
0	27280	4848	4
0	27286	4849	4
0	27295	4850	3
0	27332	4859	1
0	27342	4860	1
0	27353	4863	1
0	27374	4868	1
0	27380	4869	2
0	27440	4880	1
0	27479	4887	1
0	27490	4888	1
0	27497	4889	2
0	27503	4890	2
0	27510	4891	1
0	27520	4892	1
0	27533	4895	1
0	27570	4905	1
0	27586	4908	1
0	27596	4909	1
0	27629	4913	3
0	27639	4914	3
0	27670	4919	1
0	27682	4920	2
0	27693	4921	2
0	27731	4926	1
0	27757	4929	1
0	27820	4938	1
0	27830	4940	1
0	27836	4941	2
0	27856	4945	3
0	27865	4946	3
0	27880	4949	1
0	27890	4950	1
0	27937	4956	1
0	27961	4959	1
0	27977	4961	1
0	27988	4964	1
0	27997	4966	1
0	28008	4968	1
0	28089	4984	1
0	28096	4985	1
0	28109	4988	1
0	28155	4997	1
0	28164	4999	1
1	2377	401	1
1	2377	401	0
1	2378	401	1
1	2386	402	0
1	2408	408	1
1	2408	408	0
1	2423	411	1
1	2430	412	0
1	2462	417	1
1	2462	417	0
1	2471	419	1
1	2471	419	0
1	2491	424	1
1	2491	424	0
1	2518	430	1
1	2518	430	0
1	2558	435	1
1	2558	435	0
1	2567	436	1
1	2568	436	2
1	2570	436	1
1	2580	437	0
1	2591	439	1
1	2591	439	0
1	2612	442	1
1	2612	442	0
1	2617	443	1
1	2621	444	2
1	2622	444	3
1	2636	446	2
1	2643	447	3
1	2645	447	2
1	2650	448	3
1	2653	448	2
1	2660	449	3
1	2664	449	2
1	2669	450	3
1	2672	450	2
1	2682	451	1
1	2688	452	0
1	2697	454	1
1	2697	454	0
1	2710	458	1
1	2710	458	0
1	2715	459	1
1	2717	459	0
1	2727	462	1
1	2736	463	0
1	2753	465	1
1	2753	465	0
1	2754	465	1
1	2764	466	2
1	2766	466	1
1	2774	467	0
1	2779	468	1
1	2781	468	0
1	2793	470	1
1	2793	470	0
1	2830	475	1
1	2830	475	0
1	2839	477	1
1	2839	477	0
1	2881	488	1
1	2881	488	0
1	2886	489	1
1	2889	489	0
1	2914	494	1
1	2914	494	0
1	2933	501	1
1	2933	501	0
1	3014	520	1
1	3014	520	0
1	3103	546	1
1	3103	546	0
1	3104	546	1
1	3110	547	0
1	3144	554	1
1	3144	554	0
1	3171	560	1
1	3171	560	0
1	3182	563	1
1	3182	563	0
1	3198	566	1
1	3198	566	0
1	3199	566	1
1	3207	567	2
1	3209	567	1
1	3224	571	0
1	3225	571	1
1	3230	572	2
1	3231	572	3
1	3233	572	2
1	3239	573	1
1	3245	574	0
1	3254	576	1
1	3254	576	0
1	3263	578	1
1	3263	578	0
1	3280	584	1
1	3280	584	0
1	3281	584	1
1	3286	585	2
1	3287	585	3
1	3289	585	2
1	3294	586	3
1	3296	586	2
1	3302	587	1
1	3307	588	2
1	3316	591	1
1	3321	592	2
1	3323	592	1
1	3329	593	0
1	3357	598	1
1	3357	598	0
1	3386	605	1
1	3386	605	0
1	3387	605	1
1	3398	606	0
1	3411	609	1
1	3411	609	0
1	3412	609	1
1	3417	610	2
1	3419	610	1
1	3425	611	0
1	3457	622	1
1	3457	622	0
1	3496	627	1
1	3496	627	0
1	3514	630	1
1	3514	630	0
1	3527	634	1
1	3527	634	0
1	3536	636	1
1	3536	636	0
1	3545	638	1
1	3545	638	0
1	3554	640	1
1	3554	640	0
1	3568	643	1
1	3568	643	0
1	3606	651	1
1	3606	651	0
1	3622	654	1
1	3622	654	0
1	3633	657	1
1	3633	657	0
1	3641	658	1
1	3652	661	0
1	3653	661	1
1	3659	662	0
1	3664	663	1
1	3666	663	0
1	3682	667	1
1	3682	667	0
1	3703	670	1
1	3703	670	0
1	3717	672	1
1	3717	672	0
1	3797	687	1
1	3797	687	0
1	3815	690	1
1	3815	690	0
1	3820	691	1
1	3822	691	0
1	3884	702	1
1	3884	702	0
1	3927	709	1
1	3927	709	0
1	3954	715	1
1	3954	715	0
1	3982	723	1
1	3982	723	0
1	4029	734	1
1	4029	734	0
1	4043	737	1
1	4043	737	0
1	4050	738	1
1	4052	738	0
1	4057	739	1
1	4061	739	0
1	4131	750	1
1	4131	750	0
1	4146	753	1
1	4146	753	0
1	4156	754	1
1	4157	754	2
1	4158	754	3
1	4160	754	2
1	4188	758	1
1	4189	758	2
1	4198	759	3
1	4200	759	2
1	4208	760	1
1	4214	761	0
1	4219	762	1
1	4221	762	0
1	4226	763	1
1	4229	763	0
1	4258	768	1
1	4258	768	0
1	4289	774	1
1	4289	774	0
1	4298	775	1
1	4302	775	0
1	4333	779	1
1	4333	779	0
1	4340	780	1
1	4358	783	0
1	4375	786	1
1	4375	786	0
1	4380	787	1
1	4382	787	0
1	4398	790	1
1	4398	790	0
1	4403	791	1
1	4406	791	0
1	4453	801	1
1	4453	801	0
1	4470	806	1
1	4470	806	0
1	4479	808	1
1	4479	808	0
1	4497	812	1
1	4497	812	0
1	4511	815	1
1	4511	815	0
1	4524	817	1
1	4537	819	0
1	4538	819	1
1	4548	820	0
1	4570	823	1
1	4570	823	0
1	4578	824	1
1	4580	824	0
1	4611	831	1
1	4611	831	0
1	4619	832	1
1	4621	832	0
1	4643	837	1
1	4643	837	0
1	4648	838	1
1	4650	838	0
1	4675	844	1
1	4675	844	0
1	4682	845	1
1	4684	845	0
1	4699	848	1
1	4703	849	0
1	4708	850	1
1	4712	850	0
1	4739	855	1
1	4739	855	0
1	4775	860	1
1	4775	860	0
1	4776	860	1
1	4782	861	0
1	4787	862	1
1	4789	862	0
1	4794	863	1
1	4801	863	0
1	4816	865	1
1	4816	865	0
1	4845	870	1
1	4845	870	0
1	4854	872	1
1	4854	872	0
1	4862	874	1
1	4868	876	0
1	4869	876	1
1	4870	876	2
1	4875	877	3
1	4878	877	2
1	4890	878	1
1	4900	879	0
1	4919	884	1
1	4919	884	0
1	4952	889	1
1	4952	889	0
1	4969	894	1
1	4969	894	0
1	4970	894	1
1	4979	895	0
1	4994	899	1
1	4994	899	0
1	4995	899	1
1	5002	900	0
1	5009	901	1
1	5020	904	0
1	5028	905	1
1	5031	905	0
1	5046	907	1
1	5046	907	0
1	5063	909	1
1	5063	909	0
1	5085	914	1
1	5085	914	0
1	5102	916	1
1	5102	916	0
1	5138	921	1
1	5138	921	0
1	5150	922	1
1	5153	922	0
1	5162	923	1
1	5165	923	0
1	5188	926	1
1	5188	926	0
1	5197	927	1
1	5198	927	2
1	5215	929	3
1	5223	930	2
1	5231	931	1
1	5238	932	0
1	5259	938	1
1	5259	938	0
1	5268	940	1
1	5268	940	0
1	5276	941	1
1	5278	941	0
1	5296	944	1
1	5296	944	0
1	5310	946	1
1	5310	946	0
1	5315	947	1
1	5316	947	2
1	5318	947	1
1	5324	948	0
1	5329	949	1
1	5346	951	2
1	5354	952	1
1	5364	953	2
1	5367	953	1
1	5378	954	0
1	5387	955	1
1	5389	955	0
1	5407	957	1
1	5407	957	0
1	5424	960	1
1	5424	960	0
1	5438	962	1
1	5438	962	0
1	5447	964	1
1	5447	964	0
1	5456	966	1
1	5456	966	0
1	5484	975	1
1	5484	975	0
1	5492	976	1
1	5503	979	0
1	5512	981	1
1	5512	981	0
1	5520	982	1
1	5525	982	0
1	5580	991	1
1	5580	991	0
1	5587	992	1
1	5589	992	0
1	5602	994	1
1	5602	994	0
1	5635	1000	1
1	5635	1000	0
1	5644	1002	1
1	5644	1002	0
1	5673	1009	1
1	5673	1009	0
1	5698	1014	1
1	5698	1014	0
1	5703	1015	1
1	5704	1015	2
1	5708	1016	3
1	5714	1018	2
1	5715	1018	3
1	5716	1018	4
1	5721	1019	5
1	5723	1019	4
1	5729	1020	3
1	5735	1021	2
1	5740	1022	3
1	5742	1022	2
1	5748	1023	1
1	5754	1024	0
1	5768	1027	1
1	5768	1027	0
1	5785	1032	1
1	5785	1032	0
1	5799	1034	1
1	5799	1034	0
1	5851	1042	1
1	5851	1042	0
1	5856	1043	1
1	5860	1043	0
1	5896	1048	1
1	5896	1048	0
1	5912	1051	1
1	5912	1051	0
1	5927	1053	1
1	5927	1053	0
1	5963	1061	1
1	5963	1061	0
1	5978	1063	1
1	5978	1063	0
1	6040	1079	1
1	6040	1079	0
1	6051	1082	1
1	6051	1082	0
1	6056	1083	1
1	6057	1083	2
1	6059	1083	1
1	6072	1087	0
1	6073	1087	1
1	6078	1088	2
1	6079	1088	3
1	6082	1088	2
1	6094	1089	1
1	6106	1090	0
1	6113	1091	1
1	6117	1091	0
1	6136	1094	1
1	6136	1094	0
1	6141	1095	1
1	6142	1095	2
1	6145	1095	1
1	6156	1096	0
1	6197	1103	1
1	6197	1103	0
1	6213	1105	1
1	6213	1105	0
1	6236	1111	1
1	6236	1111	0
1	6259	1115	1
1	6259	1115	0
1	6264	1116	1
1	6266	1116	0
1	6275	1118	1
1	6275	1118	0
1	6318	1127	1
1	6318	1127	0
1	6332	1129	1
1	6332	1129	0
1	6333	1129	1
1	6339	1130	0
1	6348	1132	1
1	6348	1132	0
1	6370	1138	1
1	6370	1138	0
1	6396	1142	1
1	6396	1142	0
1	6403	1143	1
1	6412	1146	0
1	6472	1156	1
1	6472	1156	0
1	6473	1156	1
1	6478	1157	2
1	6479	1157	3
1	6481	1157	2
1	6486	1158	3
1	6490	1158	2
1	6497	1159	3
1	6503	1159	2
1	6513	1160	1
1	6523	1161	0
1	6536	1163	1
1	6536	1163	0
1	6552	1167	1
1	6552	1167	0
1	6568	1170	1
1	6568	1170	0
1	6569	1170	1
1	6594	1174	0
1	6605	1177	1
1	6605	1177	0
1	6610	1178	1
1	6611	1178	2
1	6613	1178	1
1	6618	1179	2
1	6624	1179	1
1	6634	1180	0
1	6641	1181	1
1	6646	1181	0
1	6674	1185	1
1	6674	1185	0
1	6681	1186	1
1	6683	1186	0
1	6688	1187	1
1	6690	1187	0
1	6705	1190	1
1	6705	1190	0
1	6706	1190	1
1	6716	1191	2
1	6734	1194	1
1	6742	1195	0
1	6792	1210	1
1	6792	1210	0
1	6803	1213	1
1	6803	1213	0
1	6824	1216	1
1	6824	1216	0
1	6835	1219	1
1	6835	1219	0
1	6840	1220	1
1	6842	1220	0
1	6907	1235	1
1	6907	1235	0
1	6948	1243	1
1	6948	1243	0
1	6953	1244	1
1	6955	1244	0
1	6987	1250	1
1	6987	1250	0
1	7006	1254	1
1	7006	1254	0
1	7026	1257	1
1	7026	1257	0
1	7048	1260	1
1	7048	1260	0
1	7057	1262	1
1	7057	1262	0
1	7066	1263	1
1	7068	1263	0
1	7086	1265	1
1	7086	1265	0
1	7093	1266	1
1	7096	1266	0
1	7109	1268	1
1	7109	1268	0
1	7133	1271	1
1	7133	1271	0
1	7140	1272	1
1	7144	1273	2
1	7145	1273	3
1	7156	1275	2
1	7162	1276	1
1	7167	1277	2
1	7169	1277	1
1	7177	1278	0
1	7196	1281	1
1	7196	1281	0
1	7197	1281	1
1	7198	1281	2
1	7205	1282	1
1	7215	1283	0
1	7224	1285	1
1	7224	1285	0
1	7239	1290	1
1	7239	1290	0
1	7252	1292	1
1	7252	1292	0
1	7266	1294	1
1	7272	1296	0
1	7281	1298	1
1	7281	1298	0
1	7297	1301	1
1	7297	1301	0
1	7319	1305	1
1	7319	1305	0
1	7329	1306	1
1	7332	1306	0
1	7364	1310	1
1	7364	1310	0
1	7365	1310	1
1	7375	1311	0
1	7401	1316	1
1	7401	1316	0
1	7420	1320	1
1	7420	1320	0
1	7429	1322	1
1	7429	1322	0
1	7430	1322	1
1	7435	1323	2
1	7441	1325	3
1	7448	1326	2
1	7456	1327	1
1	7462	1328	0
1	7480	1332	1
1	7480	1332	0
1	7506	1335	1
1	7506	1335	0
1	7516	1336	1
1	7518	1336	0
1	7539	1339	1
1	7539	1339	0
1	7544	1340	1
1	7546	1340	0
1	7555	1342	1
1	7555	1342	0
1	7556	1342	1
1	7562	1343	0
1	7567	1344	1
1	7568	1344	2
1	7577	1347	1
1	7582	1348	2
1	7585	1348	1
1	7595	1349	0
1	7604	1351	1
1	7604	1351	0
1	7620	1354	1
1	7620	1354	0
1	7638	1358	1
1	7638	1358	0
1	7639	1358	1
1	7645	1359	0
1	7670	1365	1
1	7670	1365	0
1	7681	1366	1
1	7685	1366	0
1	7694	1367	1
1	7696	1367	0
1	7705	1368	1
1	7715	1369	2
1	7716	1369	3
1	7731	1371	2
1	7740	1372	3
1	7741	1372	4
1	7742	1372	5
1	7745	1372	4
1	7756	1373	3
1	7767	1374	2