version 3
run Experimentos-232-20260508-20:05:47-28995
attr configname Experimentos
attr datetime 20260508-20:05:47
attr datetimef 20260508-200547
attr experiment Experimentos
attr inifile TwoQueues.ini
attr iterationvars "$p=0.6, $q=0.2, $Y=30, $m=5"
attr iterationvarsd p=0.6/q=0.2/Y=30/m=5
attr iterationvarsf p=0.6,q=0.2,Y=30,m=5-
attr measurement "$p=0.6, $q=0.2, $Y=30, $m=5"
attr network TwoQueues
attr processid 28995
attr repetition 12
attr replication #12
attr resultdir results
attr runnumber 232
attr seedset 232
itervar Y 30
itervar m 5
itervar p 0.6
itervar q 0.2
config description "Barrido completo de parámetros Proyecto 12"
config **.source1.p 0.6
config **.source1.q 0.2
config **.source2.p 0.6
config **.source2.q 0.2
config **.serverWithMaintenance.Y 30
config **.serverWithMaintenance.m 5
config network TwoQueues
config cpu-time-limit 5000s
config sim-time-limit 5000s
config warmup-period 400s
config repeat 20
config output-scalar-file results/Experimentos-p=0.6,q=0.2,Y=30,m=5--#12.sca
config output-vector-file results/Experimentos-p=0.6,q=0.2,Y=30,m=5--#12.vec
config **.vector-recording true

vector 0 TwoQueues.serverWithMaintenance residenceTime2:vector ETV
attr recordingmode vector
attr source delay2
attr title "Residence Time Class 2"
vector 1 TwoQueues.queue2 queueLengthStats:vector ETV
attr recordingmode vector
attr source qlen
attr title "Average Queue Length"
vector 2 TwoQueues.queue1 queueLengthStats:vector ETV
attr recordingmode vector
attr source qlen
attr title "Average Queue Length"
vector 3 TwoQueues.server residenceTime1:vector ETV
attr recordingmode vector
attr source delay1
attr title "Residence Time Class 1"
vector 4 TwoQueues.server throughputStats1:vector ETV
attr recordingmode vector
attr source throughput1
attr title "Throughput Class 1"
0	2534	404	1
0	2608	423	1
0	2633	426	1
0	2684	434	1
0	2721	438	1
0	2732	439	1
0	2775	445	4
0	2782	446	1
0	2789	447	1
0	2836	458	1
0	2884	467	1
0	2902	468	2
0	2913	469	2
0	2935	471	1
0	2946	472	2
0	2966	474	1
0	2978	475	1
0	2992	476	2
0	3061	486	1
0	3118	494	1
0	3130	495	2
0	3140	496	2
0	3149	497	3
0	3165	498	1
0	3196	502	1
0	3210	503	1
0	3228	505	1
0	3240	506	1
0	3256	507	2
0	3268	508	2
0	3279	509	1
0	3299	511	1
0	3380	523	1
0	3398	525	1
0	3423	528	1
0	3433	529	1
0	3478	535	5
0	3489	536	4
0	3500	537	2
0	3618	554	1
0	3631	555	1
0	3650	557	1
0	3661	558	1
0	3695	562	1
0	3707	563	2
0	3719	564	2
0	3763	571	1
0	3794	575	1
0	3810	577	1
0	3820	578	1
0	3886	588	1
0	3897	589	1
0	3922	592	1
0	3934	593	1
0	3944	594	1
0	3951	595	1
0	3996	601	1
0	4008	602	1
0	4063	609	1
0	4100	614	1
0	4142	619	1
0	4162	621	1
0	4240	632	1
0	4273	636	1
0	4301	640	1
0	4342	648	1
0	4369	654	6
0	4379	655	5
0	4386	656	3
0	4397	657	3
0	4409	658	3
0	4428	660	1
0	4448	662	1
0	4465	664	1
0	4479	665	1
0	4498	667	1
0	4532	671	1
0	4543	672	2
0	4554	673	3
0	4566	674	3
0	4577	675	2
0	4636	683	1
0	4645	684	2
0	4652	685	1
0	4673	693	1
0	4709	701	1
0	4727	704	1
0	4776	712	1
0	4783	713	1
0	4937	734	1
0	4961	737	1
0	4971	738	2
0	5008	742	1
0	5031	745	1
0	5049	747	1
0	5060	748	1
0	5131	759	1
0	5160	766	1
0	5167	767	1
0	5183	770	1
0	5194	771	1
0	5288	784	1
0	5300	785	2
0	5344	791	1
0	5422	807	1
0	5433	809	1
0	5450	813	1
0	5460	814	2
0	5477	817	1
0	5656	844	1
0	5740	860	1
0	5780	865	1
0	5839	874	1
0	5850	875	1
0	5878	879	1
0	5906	883	1
0	5916	884	1
0	6085	919	1
0	6103	921	1
0	6126	924	1
0	6136	925	1
0	6145	926	1
0	6218	936	1
0	6268	944	1
0	6285	946	1
0	6301	948	1
0	6378	959	1
0	6384	960	2
0	6405	963	1
0	6421	966	1
0	6462	975	1
0	6474	976	2
0	6485	977	1
0	6526	986	1
0	6564	991	1
0	6645	1003	1
0	6681	1011	1
0	6703	1014	1
0	6712	1015	2
0	6771	1031	1
0	6792	1036	1
0	6799	1037	2
0	6807	1038	2
0	6816	1039	2
0	6828	1040	3
0	6866	1046	1
0	6933	1057	1
0	6963	1062	1
0	6974	1064	1
0	6984	1065	1
0	6994	1066	1
0	7008	1068	1
0	7017	1069	2
0	7050	1074	1
0	7068	1076	1
0	7074	1077	2
0	7108	1083	8
0	7114	1084	4
0	7123	1085	5
0	7134	1087	1
0	7162	1095	1
0	7201	1101	1
0	7229	1104	1
0	7259	1107	1
0	7300	1112	1
0	7423	1129	1
0	7472	1136	1
0	7511	1143	1
0	7583	1158	1
0	7595	1160	1
0	7640	1169	1
0	7678	1175	1
0	7705	1178	1
0	7718	1179	1
0	7740	1181	1
0	7770	1185	1
0	7819	1192	1
0	7852	1201	1
0	7872	1204	1
0	7882	1205	2
0	7892	1206	1
0	7948	1215	1
0	7968	1219	1
0	8000	1224	1
0	8010	1225	1
0	8028	1227	1
0	8067	1233	5
0	8074	1234	1
0	8095	1239	1
0	8101	1240	2
0	8113	1242	1
0	8138	1245	1
0	8207	1254	1
0	8218	1255	1
0	8228	1256	1
0	8242	1258	1
0	8264	1262	1
0	8274	1263	2
0	8286	1265	1
0	8304	1268	1
0	8319	1269	1
0	8393	1281	1
0	8448	1295	1
0	8460	1297	1
0	8522	1305	1
0	8541	1307	1
0	8565	1310	1
0	8587	1313	1
0	8598	1314	1
0	8667	1323	1
0	8678	1324	1
0	8692	1325	1
0	8763	1337	1
0	8806	1344	1
0	8842	1349	1
0	8893	1356	1
0	8941	1362	5
0	8951	1363	6
0	8961	1364	3
0	8971	1365	2
0	9041	1377	1
0	9053	1378	1
0	9078	1381	1
0	9099	1383	1
0	9153	1390	1
0	9194	1396	1
0	9222	1400	1
0	9237	1405	1
0	9342	1419	1
0	9353	1420	2
0	9379	1423	1
0	9390	1424	1
0	9414	1427	1
0	9425	1428	1
0	9435	1429	1
0	9458	1432	1
0	9535	1449	1
0	9544	1451	1
0	9566	1457	1
0	9573	1458	1
0	9587	1462	1
0	9593	1463	2
0	9639	1470	1
0	9688	1479	1
0	9715	1484	1
0	9722	1485	1
0	9745	1491	6
0	9755	1492	2
0	9773	1495	1
0	9796	1499	1
0	9803	1500	1
0	9846	1509	1
0	9915	1521	1
0	9955	1531	1
0	9966	1533	1
0	9976	1534	1
0	9987	1537	1
0	10044	1549	1
0	10077	1553	1
0	10116	1558	1
0	10135	1561	1
0	10157	1567	1
0	10202	1573	1
0	10299	1587	1
0	10330	1591	1
0	10362	1595	1
0	10403	1602	1
0	10409	1603	2
0	10418	1605	1
0	10425	1606	1
0	10444	1609	1
0	10455	1610	1
0	10469	1612	1
0	10488	1614	1
0	10524	1618	1
0	10555	1622	1
0	10603	1628	5
0	10609	1629	4
0	10618	1630	5
0	10631	1631	6
0	10716	1645	1
0	10726	1646	1
0	10760	1650	1
0	10852	1663	1
0	10898	1673	1
0	10914	1675	1
0	10925	1678	1
0	11047	1701	1
0	11106	1711	1
0	11137	1720	1
0	11173	1726	1
0	11183	1727	1
0	11210	1731	1
0	11314	1751	1
0	11323	1752	2
0	11373	1759	1
0	11380	1760	2
0	11386	1761	2
0	11397	1762	1
0	11414	1765	1
0	11424	1766	1
0	11446	1771	1
0	11476	1776	1
0	11500	1779	1
0	11512	1780	2
0	11523	1781	1
0	11551	1788	1
0	11653	1810	1
0	11662	1811	2
0	11672	1812	1
0	11707	1816	1
0	11742	1820	1
0	11899	1842	1
0	11916	1844	1
0	11930	1845	1
0	11949	1847	1
0	11961	1848	1
0	11987	1851	1
0	11997	1852	2
0	12048	1859	1
0	12081	1867	1
0	12091	1868	1
0	12098	1869	1
0	12116	1872	1
0	12145	1876	1
0	12165	1878	1
0	12212	1884	1
0	12225	1885	2
0	12251	1888	1
0	12273	1890	1
0	12284	1891	2
0	12342	1899	1
0	12360	1901	1
0	12398	1909	1
0	12423	1914	1
0	12452	1921	1
0	12484	1927	6
0	12496	1928	4
0	12508	1929	4
0	12521	1930	2
0	12545	1933	1
0	12571	1936	1
0	12595	1941	1
0	12616	1944	1
0	12650	1952	1
0	12657	1953	1
0	12664	1954	1
0	12696	1960	1
0	12713	1962	1
0	12731	1965	1
0	12738	1966	1
0	12749	1967	1
0	12760	1968	2
0	12843	1986	1
0	12850	1987	1
0	12907	1997	1
0	12963	2010	1
0	12975	2011	1
0	13004	2015	1
0	13084	2029	1
0	13135	2037	1
0	13142	2038	1
0	13153	2040	1
0	13165	2042	1
0	13197	2047	1
0	13248	2053	1
0	13297	2059	7
0	13308	2060	5
0	13319	2061	2
0	13329	2062	2
0	13341	2063	1
0	13374	2067	1
0	13411	2072	1
0	13504	2091	1
0	13540	2098	1
0	13568	2101	1
0	13577	2102	2
0	13587	2103	3
0	13595	2104	2
0	13604	2106	1
0	13625	2109	1
0	13635	2110	1
0	13684	2120	1
0	13707	2125	1
0	13716	2127	1
0	13767	2133	1
0	13811	2139	1
0	13841	2143	1
0	13971	2167	1
0	13985	2169	1
0	14026	2176	1
0	14036	2177	1
0	14050	2180	1
0	14059	2181	2
0	14072	2185	1
0	14085	2186	1
0	14168	2200	1
0	14185	2203	1
0	14197	2204	2
0	14293	2220	1
0	14300	2221	1
0	14307	2222	1
0	14314	2223	1
0	14321	2224	1
0	14352	2228	1
0	14381	2234	1
0	14423	2246	1
0	14432	2247	2
0	14502	2261	1
0	14521	2264	1
0	14535	2265	1
0	14547	2266	2
0	14557	2267	2
0	14649	2282	1
0	14661	2283	1
0	14671	2284	1
0	14690	2290	1
0	14703	2292	1
0	14709	2293	2
0	14748	2304	1
0	14784	2309	1
0	14832	2316	1
0	14851	2318	1
0	14879	2322	1
0	14889	2323	1
0	14900	2324	1
0	14949	2331	1
0	14965	2333	1
0	14976	2335	1
0	14988	2337	1
0	14995	2338	1
0	15014	2345	1
0	15021	2346	1
0	15044	2349	1
0	15060	2351	1
0	15070	2352	2
0	15086	2354	1
0	15110	2357	1
0	15120	2358	1
0	15154	2364	1
0	15169	2366	1
0	15199	2371	1
0	15211	2372	2
0	15237	2375	1
0	15271	2381	1
0	15284	2384	1
0	15300	2385	1
0	15310	2386	2
0	15367	2396	1
0	15377	2397	2
0	15396	2399	1
0	15423	2402	1
0	15442	2404	1
0	15510	2413	1
0	15528	2415	1
0	15578	2422	1
0	15598	2429	1
0	15616	2432	1
0	15637	2435	1
0	15664	2438	1
0	15703	2444	1
0	15795	2457	1
0	15822	2460	1
0	15860	2465	1
0	15884	2468	1
0	15909	2471	1
0	15964	2480	1
0	16011	2488	1
0	16048	2493	1
0	16085	2504	1
0	16133	2511	1
0	16179	2517	1
0	16197	2519	1
0	16216	2521	1
0	16240	2524	1
0	16252	2525	1
0	16306	2536	1
0	16317	2537	2
0	16328	2538	2
0	16454	2557	1
0	16559	2575	1
0	16570	2576	2
0	16579	2577	2
0	16644	2589	1
0	16650	2590	2
0	16662	2592	1
0	16725	2606	1
0	16748	2609	1
0	16761	2610	1
0	16778	2612	1
0	16810	2616	1
0	16835	2621	1
0	16863	2624	1
0	16921	2635	1
0	16967	2644	1
0	16985	2646	1
0	16996	2647	2
0	17081	2658	1
0	17112	2662	1
0	17125	2663	1
0	17149	2666	1
0	17160	2667	1
0	17181	2669	1
0	17205	2672	1
0	17243	2677	1
0	17285	2682	1
0	17360	2694	1
0	17367	2695	2
0	17374	2696	2
0	17380	2697	2
0	17427	2710	1
0	17433	2711	2
0	17476	2719	1
0	17488	2720	1
0	17565	2733	1
0	17585	2735	1
0	17621	2741	6
0	17681	2751	1
0	17746	2763	1
0	17764	2766	1
0	17780	2768	1
0	17814	2773	1
0	17834	2775	1
0	17845	2776	1
0	17879	2781	1
0	17890	2782	1
0	17901	2783	2
0	17938	2789	1
0	18005	2799	1
0	18016	2800	1
0	18041	2803	1
0	18077	2810	1
0	18108	2817	1
0	18136	2822	1
0	18203	2834	1
0	18269	2845	1
0	18279	2846	2
0	18331	2857	1
0	18362	2861	1
0	18373	2862	1
0	18399	2866	1
0	18470	2875	1
0	18506	2880	1
0	18531	2883	1
0	18542	2884	1
0	18604	2895	1
0	18653	2901	7
0	18663	2902	5
0	18676	2903	5
0	18687	2904	1
0	18739	2911	1
0	18749	2912	2
0	18761	2914	1
0	18768	2915	1
0	18829	2924	1
0	18850	2926	1
0	18881	2930	1
0	18910	2935	1
0	18922	2937	1
0	19019	2954	1
0	19030	2955	1
0	19042	2957	1
0	19106	2973	1
0	19132	2977	1
0	19191	2985	1
0	19205	2986	1
0	19233	2990	1
0	19244	2993	1
0	19396	3018	1
0	19406	3019	2
0	19467	3029	1
0	19532	3038	1
0	19550	3040	1
0	19563	3041	1
0	19572	3042	2
0	19587	3047	1
0	19639	3056	1
0	19651	3057	2
0	19660	3058	2
0	19670	3059	1
0	19736	3070	1
0	19756	3072	1
0	19769	3073	1
0	19812	3084	1
0	19833	3086	1
0	19864	3090	1
0	19895	3094	1
0	19990	3113	1
0	20026	3118	1
0	20051	3121	1
0	20092	3129	1
0	20122	3134	1
0	20170	3142	1
0	20180	3143	1
0	20208	3148	1
0	20294	3159	1
0	20304	3160	2
0	20315	3161	1
0	20355	3169	1
0	20374	3171	1
0	20443	3180	1
0	20454	3181	1
0	20470	3182	1
0	20539	3194	1
0	20602	3204	1
0	20635	3211	1
0	20659	3217	7
0	20668	3219	1
0	20765	3234	1
0	20779	3236	1
0	20807	3241	1
0	20876	3251	1
0	20925	3259	1
0	20944	3262	1
0	20979	3272	1
0	21015	3281	1
0	21027	3282	2
0	21036	3283	2
0	21080	3289	1
0	21104	3292	1
0	21202	3306	1
0	21238	3313	1
0	21296	3323	1
0	21335	3330	1
0	21360	3334	1
0	21434	3343	1
0	21465	3347	1
0	21488	3350	1
0	21519	3354	1
0	21530	3355	2
0	21589	3366	1
0	21599	3367	1
0	21608	3369	1
0	21647	3377	1
0	21679	3380	1
0	21737	3388	1
0	21809	3399	1
0	21832	3402	1
0	21857	3408	1
0	21866	3410	1
0	21890	3413	1
0	21914	3417	1
0	21926	3418	1
0	21938	3419	2
0	21983	3425	1
0	22006	3429	1
0	22019	3430	1
0	22029	3431	2
0	22035	3432	2
0	22064	3436	1
0	22108	3441	1
0	22125	3443	1
0	22210	3455	1
0	22234	3458	1
0	22253	3461	1
0	22284	3466	1
0	22295	3467	1
0	22321	3470	1
0	22396	3480	1
0	22436	3486	1
0	22454	3488	1
0	22468	3491	1
0	22485	3497	1
0	22505	3501	1
0	22518	3503	1
0	22528	3504	2
0	22561	3510	7
0	22572	3511	7
0	22629	3521	1
0	22656	3525	1
0	22688	3529	1
0	22712	3535	1
0	22832	3555	1
0	22871	3563	1
0	22933	3571	1
0	22982	3580	1
0	23056	3591	1
0	23079	3596	1
0	23116	3602	1
0	23123	3603	1
0	23156	3608	1
0	23184	3612	1
0	23196	3613	1
0	23208	3614	2
0	23218	3615	2
0	23225	3616	2
0	23231	3617	2
0	23311	3630	1
0	23323	3631	1
0	23363	3636	1
0	23398	3642	1
0	23461	3651	1
0	23473	3652	1
0	23499	3656	1
0	23563	3666	1
0	23610	3673	1
0	23658	3680	1
0	23696	3689	1
0	23726	3694	1
0	23742	3697	1
0	23749	3698	1
0	23760	3701	1
0	23788	3706	1
0	23806	3708	1
0	23816	3709	1
0	23832	3712	1
0	23883	3720	1
0	23973	3738	1
0	23984	3739	1
0	24025	3746	1
0	24032	3747	1
0	24051	3750	1
0	24095	3756	1
0	24108	3757	2
0	24162	3764	1
0	24173	3765	1
0	24280	3779	1
0	24345	3788	1
0	24371	3791	1
0	24453	3802	1
0	24536	3814	1
0	24543	3815	1
0	24568	3819	1
0	24655	3834	1
0	24697	3842	1
0	24706	3844	1
0	24822	3870	1
0	24847	3873	1
0	24887	3882	1
0	24932	3889	1
0	24939	3890	1
0	24948	3892	1
0	24955	3893	1
0	24962	3894	1
0	25067	3909	1
0	25083	3912	1
0	25140	3922	1
0	25152	3923	1
0	25170	3927	1
0	25187	3930	1
0	25199	3931	2
0	25210	3932	2
0	25229	3934	1
0	25248	3937	1
0	25261	3940	1
0	25498	3983	1
0	25574	3995	1
0	25701	4019	1
0	25720	4021	1
0	25745	4024	1
0	25793	4030	1
0	25817	4034	1
0	25827	4035	1
0	25836	4036	1
0	25878	4046	1
0	25935	4054	1
0	26002	4065	1
0	26012	4066	1
0	26080	4076	1
0	26096	4078	1
0	26117	4082	1
0	26146	4088	1
0	26163	4090	1
0	26199	4096	1
0	26254	4104	1
0	26272	4106	1
0	26283	4107	2
0	26321	4111	1
0	26361	4116	1
0	26382	4118	1
0	26438	4126	1
0	26488	4134	1
0	26495	4135	1
0	26554	4143	1
0	26574	4147	1
0	26583	4149	1
0	26592	4151	1
0	26624	4155	1
0	26654	4158	1
0	26665	4159	1
0	26676	4160	1
0	26704	4163	1
0	26717	4164	2
0	26727	4165	2
0	26773	4171	1
0	26841	4183	1
0	26883	4189	5
0	26893	4190	3
0	26903	4191	1
0	26951	4198	1
0	26969	4200	1
0	26989	4204	1
0	26996	4205	1
0	27035	4212	1
0	27045	4213	1
0	27054	4214	1
0	27065	4216	1
0	27088	4220	1
0	27109	4224	1
0	27134	4229	1
0	27187	4238	1
0	27203	4241	1
0	27304	4264	1
0	27320	4266	1
0	27334	4269	1
0	27390	4281	1
0	27432	4287	1
0	27522	4299	1
0	27560	4304	1
0	27571	4305	1
0	27629	4313	1
0	27775	4334	1
0	27812	4339	1
0	27831	4341	1
0	27841	4342	2
0	27851	4343	2
0	27899	4349	5
0	27909	4350	4
0	27974	4360	1
0	27984	4361	1
0	28063	4373	1
0	28128	4383	1
0	28135	4384	1
0	28181	4397	1
0	28205	4400	1
0	28219	4401	1
0	28260	4406	1
0	28273	4407	1
0	28297	4410	1
0	28309	4411	1
0	28326	4413	1
0	28346	4415	1
0	28371	4418	1
0	28382	4419	1
0	28392	4420	1
0	28469	4436	1
0	28481	4439	1
0	28490	4440	2
0	28503	4443	1
0	28562	4454	1
0	28605	4463	1
0	28650	4469	1
0	28755	4488	1
0	28830	4501	1
0	28839	4502	2
0	28875	4509	1
0	28898	4515	4
0	28928	4519	1
0	28940	4521	1
0	28951	4524	1
0	29035	4541	1
0	29060	4545	1
0	29084	4548	1
0	29092	4549	1
0	29098	4550	2
0	29108	4551	1
0	29155	4560	1
0	29165	4561	1
0	29202	4568	1
0	29242	4572	1
0	29320	4585	1
0	29339	4587	1
0	29421	4602	1
0	29432	4603	1
0	29448	4605	1
0	29455	4606	1
0	29466	4609	1
0	29478	4611	1
0	29548	4624	1
0	29578	4630	1
0	29610	4634	1
0	29639	4638	1
0	29671	4643	1
0	29701	4647	1
0	29712	4648	2
0	29744	4653	1
0	29774	4659	6
0	29800	4664	1
0	29827	4667	1
0	29881	4674	1
0	29922	4679	1
0	29933	4680	1
0	29944	4681	1
0	30031	4696	1
0	30042	4697	2
0	30053	4698	2
0	30092	4703	1
0	30119	4706	1
0	30254	4730	1
0	30280	4734	1
0	30313	4738	1
0	30342	4743	1
0	30391	4749	1
0	30447	4759	1
0	30454	4760	1
0	30464	4761	1
0	30494	4765	1
0	30578	4778	1
0	30598	4781	1
0	30618	4783	1
0	30658	4791	1
0	30668	4792	1
0	30682	4794	1
0	30705	4799	1
0	30728	4802	1
0	30744	4805	1
0	30772	4811	3
0	30832	4821	1
0	30919	4837	1
0	30928	4839	1
0	30967	4847	1
0	30978	4848	1
0	30989	4849	1
0	30995	4850	2
0	31026	4859	1
0	31035	4860	2
0	31067	4867	1
0	31098	4871	1
0	31107	4872	2
0	31119	4874	1
0	31128	4875	2
0	31147	4878	1
0	31156	4879	2
0	31165	4880	1
0	31197	4884	1
0	31221	4887	1
0	31252	4892	1
0	31263	4893	1
0	31287	4896	1
0	31294	4897	1
0	31345	4907	1
0	31382	4912	1
0	31393	4913	2
0	31441	4923	1
0	31454	4924	1
0	31469	4925	1
0	31513	4931	1
0	31525	4932	1
0	31548	4935	1
0	31558	4936	1
0	31588	4942	1
0	31606	4945	1
0	31622	4947	1
0	31632	4948	1
0	31639	4949	1
0	31647	4950	1
0	31653	4951	2
0	31668	4956	1
0	31715	4963	1
0	31728	4964	1
0	31762	4968	1
0	31807	4977	1
0	31830	4981	1
0	31839	4982	2
0	31847	4983	3
0	31893	4990	1
0	31905	4992	1
0	31928	4995	1
0	31937	4996	2
0	31949	4997	3
0	31960	4998	2
0	31969	4999	1
1	2528	403	1
1	2528	403	0
1	2600	422	1
1	2600	422	0
1	2625	425	1
1	2625	425	0
1	2677	433	1
1	2677	433	0
1	2712	437	1
1	2712	437	0
1	2723	438	1
1	2725	438	0
1	2747	441	1
1	2769	444	0
1	2776	445	1
1	2778	445	0
1	2783	446	1
1	2785	446	0
1	2832	457	1
1	2832	457	0
1	2875	466	1
1	2875	466	0
1	2876	466	1
1	2886	467	2
1	2895	467	1
1	2906	468	0
1	2923	470	1
1	2923	470	0
1	2924	470	1
1	2939	471	0
1	2958	473	1
1	2958	473	0
1	2968	474	1
1	2969	474	2
1	2971	474	1
1	2985	475	0
1	3054	485	1
1	3054	485	0
1	3109	493	1
1	3109	493	0
1	3110	493	1
1	3120	494	2
1	3121	494	3
1	3123	494	2
1	3133	495	1
1	3143	496	0
1	3150	497	1
1	3159	497	0
1	3189	501	1
1	3189	501	0
1	3198	502	1
1	3203	502	0
1	3220	504	1
1	3220	504	0
1	3230	505	1
1	3231	505	2
1	3233	505	1
1	3242	506	2
1	3249	506	1
1	3261	507	0
1	3270	508	1
1	3272	508	0
1	3291	510	1
1	3291	510	0
1	3373	522	1
1	3373	522	0
1	3391	524	1
1	3391	524	0
1	3416	527	1
1	3416	527	0
1	3425	528	1
1	3427	528	0
1	3437	530	1
1	3449	532	2
1	3467	534	1
1	3480	535	2
1	3482	535	1
1	3493	536	0
1	3610	553	1
1	3610	553	0
1	3620	554	1
1	3624	554	0
1	3643	556	1
1	3643	556	0
1	3652	557	1
1	3654	557	0
1	3686	561	1
1	3686	561	0
1	3687	561	1
1	3697	562	2
1	3700	562	1
1	3712	563	0
1	3759	570	1
1	3759	570	0
1	3787	574	1
1	3787	574	0
1	3804	576	1
1	3804	576	0
1	3811	577	1
1	3814	577	0
1	3879	587	1
1	3879	587	0
1	3888	588	1
1	3890	588	0
1	3915	591	1
1	3915	591	0
1	3924	592	1
1	3927	592	0
1	3936	593	1
1	3938	593	0
1	3945	594	1
1	3947	594	0
1	3989	600	1
1	3989	600	0
1	3998	601	1
1	4001	601	0
1	4048	608	1
1	4048	608	0
1	4092	613	1
1	4092	613	0
1	4132	618	1
1	4132	618	0
1	4155	620	1
1	4155	620	0
1	4233	631	1
1	4233	631	0
1	4264	635	1
1	4264	635	0
1	4295	639	1
1	4295	639	0
1	4336	647	1
1	4336	647	0
1	4343	648	1
1	4349	650	2
1	4360	653	1
1	4361	653	2
1	4371	654	3
1	4373	654	2
1	4380	655	3
1	4382	655	2
1	4391	656	1
1	4403	657	0
1	4419	659	1
1	4419	659	0
1	4440	661	1
1	4440	661	0
1	4458	663	1
1	4458	663	0
1	4467	664	1
1	4472	664	0
1	4491	666	1
1	4491	666	0
1	4523	670	1
1	4523	670	0
1	4524	670	1
1	4525	670	2
1	4534	671	3
1	4536	671	2
1	4547	672	1
1	4556	673	2
1	4559	673	1
1	4570	674	0
1	4627	682	1
1	4627	682	0
1	4628	682	1
1	4639	683	0
1	4646	684	1
1	4648	684	0
1	4669	692	1
1	4669	692	0
1	4705	700	1
1	4705	700	0
1	4721	703	1
1	4721	703	0
1	4770	711	1
1	4770	711	0
1	4777	712	1
1	4779	712	0
1	4930	733	1
1	4930	733	0
1	4953	736	1
1	4953	736	0
1	4954	736	1
1	4964	737	0
1	5000	741	1
1	5000	741	0
1	5024	744	1
1	5024	744	0
1	5041	746	1
1	5041	746	0
1	5051	747	1
1	5053	747	0
1	5127	758	1
1	5127	758	0
1	5156	765	1
1	5156	765	0
1	5161	766	1
1	5163	766	0
1	5179	769	1
1	5179	769	0
1	5184	770	1
1	5188	770	0
1	5275	783	1
1	5275	783	0
1	5276	783	1
1	5293	784	0
1	5337	790	1
1	5337	790	0
1	5418	806	1
1	5418	806	0
1	5427	808	1
1	5427	808	0
1	5445	812	1
1	5445	812	0
1	5446	812	1
1	5454	813	0
1	5473	816	1
1	5473	816	0
1	5650	843	1
1	5650	843	0
1	5733	859	1
1	5733	859	0
1	5773	864	1
1	5773	864	0
1	5832	873	1
1	5832	873	0
1	5841	874	1
1	5843	874	0
1	5870	878	1
1	5870	878	0
1	5899	882	1
1	5899	882	0
1	5908	883	1
1	5910	883	0
1	6078	918	1
1	6078	918	0
1	6096	920	1
1	6096	920	0
1	6120	923	1
1	6120	923	0
1	6127	924	1
1	6130	924	0
1	6137	925	1
1	6141	925	0
1	6209	935	1
1	6209	935	0
1	6262	943	1
1	6262	943	0
1	6279	945	1
1	6279	945	0
1	6293	947	1
1	6293	947	0
1	6371	958	1
1	6371	958	0
1	6372	958	1
1	6380	959	0
1	6399	962	1
1	6399	962	0
1	6417	965	1
1	6417	965	0
1	6453	974	1
1	6453	974	0
1	6454	974	1
1	6467	975	0
1	6476	976	1
1	6478	976	0
1	6520	985	1
1	6520	985	0
1	6557	990	1
1	6557	990	0
1	6639	1002	1
1	6639	1002	0
1	6677	1010	1
1	6677	1010	0
1	6696	1013	1
1	6696	1013	0
1	6697	1013	1
1	6706	1014	0
1	6767	1030	1
1	6767	1030	0
1	6785	1035	1
1	6785	1035	0
1	6786	1035	1
1	6793	1036	2
1	6795	1036	1
1	6800	1037	2
1	6801	1037	3
1	6803	1037	2
1	6810	1038	1
1	6822	1039	0
1	6862	1045	1
1	6862	1045	0
1	6927	1056	1
1	6927	1056	0
1	6959	1061	1
1	6959	1061	0
1	6968	1063	1
1	6968	1063	0
1	6976	1064	1
1	6978	1064	0
1	6985	1065	1
1	6988	1065	0
1	7001	1067	1
1	7001	1067	0
1	7002	1067	1
1	7011	1068	0
1	7043	1073	1
1	7043	1073	0
1	7060	1075	1
1	7060	1075	0
1	7061	1075	1
1	7062	1075	2
1	7070	1076	1
1	7095	1080	2
1	7096	1080	3
1	7104	1082	2
1	7110	1083	1
1	7117	1084	0
1	7130	1086	1
1	7130	1086	0
1	7155	1094	1
1	7155	1094	0
1	7194	1100	1
1	7194	1100	0
1	7221	1103	1
1	7221	1103	0
1	7247	1106	1
1	7247	1106	0
1	7293	1111	1
1	7293	1111	0
1	7415	1128	1
1	7415	1128	0
1	7465	1135	1
1	7465	1135	0
1	7507	1142	1
1	7507	1142	0
1	7575	1157	1
1	7575	1157	0
1	7591	1159	1
1	7591	1159	0
1	7633	1168	1
1	7633	1168	0
1	7670	1174	1
1	7670	1174	0
1	7698	1177	1
1	7698	1177	0
1	7707	1178	1
1	7711	1178	0
1	7733	1180	1
1	7733	1180	0
1	7763	1184	1
1	7763	1184	0
1	7813	1191	1
1	7813	1191	0
1	7848	1200	1
1	7848	1200	0
1	7864	1203	1
1	7864	1203	0
1	7865	1203	1
1	7875	1204	0
1	7884	1205	1
1	7886	1205	0
1	7940	1214	1
1	7940	1214	0
1	7964	1218	1
1	7964	1218	0
1	7992	1223	1
1	7992	1223	0
1	8002	1224	1
1	8004	1224	0
1	8020	1226	1
1	8020	1226	0
1	8037	1228	1
1	8061	1232	0
1	8068	1233	1
1	8070	1233	0
1	8088	1238	1
1	8088	1238	0
1	8089	1238	1
1	8097	1239	0
1	8106	1241	1
1	8106	1241	0
1	8131	1244	1
1	8131	1244	0
1	8200	1253	1
1	8200	1253	0
1	8209	1254	1
1	8211	1254	0
1	8220	1255	1
1	8222	1255	0
1	8236	1257	1
1	8236	1257	0
1	8255	1261	1
1	8255	1261	0
1	8256	1261	1
1	8267	1262	0
1	8282	1264	1
1	8282	1264	0
1	8298	1267	1
1	8298	1267	0
1	8306	1268	1
1	8312	1268	0
1	8389	1280	1
1	8389	1280	0
1	8442	1294	1
1	8442	1294	0
1	8456	1296	1
1	8456	1296	0
1	8515	1304	1
1	8515	1304	0
1	8533	1306	1
1	8533	1306	0
1	8558	1309	1
1	8558	1309	0
1	8581	1312	1
1	8581	1312	0
1	8588	1313	1
1	8592	1313	0
1	8660	1322	1
1	8660	1322	0
1	8669	1323	1
1	8671	1323	0
1	8680	1324	1
1	8685	1324	0
1	8755	1336	1
1	8755	1336	0
1	8798	1343	1
1	8798	1343	0
1	8835	1348	1
1	8835	1348	0
1	8884	1355	1
1	8884	1355	0
1	8903	1357	1
1	8904	1357	2
1	8933	1361	1
1	8934	1361	2
1	8944	1362	1
1	8953	1363	2
1	8955	1363	1
1	8965	1364	0
1	9032	1376	1
1	9032	1376	0
1	9043	1377	1
1	9046	1377	0
1	9071	1380	1
1	9071	1380	0
1	9090	1382	1
1	9090	1382	0
1	9144	1389	1
1	9144	1389	0
1	9188	1395	1
1	9188	1395	0
1	9216	1399	1
1	9216	1399	0
1	9233	1404	1
1	9233	1404	0
1	9333	1418	1
1	9333	1418	0
1	9334	1418	1
1	9346	1419	0
1	9371	1422	1
1	9371	1422	0
1	9381	1423	1
1	9383	1423	0
1	9407	1426	1
1	9407	1426	0
1	9416	1427	1
1	9418	1427	0
1	9427	1428	1
1	9429	1428	0
1	9451	1431	1
1	9451	1431	0
1	9531	1448	1
1	9531	1448	0
1	9540	1450	1
1	9540	1450	0
1	9560	1456	1
1	9560	1456	0
1	9567	1457	1
1	9569	1457	0
1	9582	1461	1
1	9582	1461	0
1	9583	1461	1
1	9589	1462	0
1	9631	1469	1
1	9631	1469	0
1	9680	1478	1
1	9680	1478	0
1	9711	1483	1
1	9711	1483	0
1	9716	1484	1
1	9718	1484	0
1	9723	1485	1
1	9736	1490	0
1	9737	1490	1
1	9748	1491	0
1	9769	1494	1
1	9769	1494	0
1	9792	1498	1
1	9792	1498	0
1	9797	1499	1
1	9799	1499	0
1	9836	1508	1
1	9836	1508	0
1	9911	1520	1
1	9911	1520	0
1	9951	1530	1
1	9951	1530	0
1	9960	1532	1
1	9960	1532	0
1	9968	1533	1
1	9970	1533	0
1	9983	1536	1
1	9983	1536	0
1	10035	1548	1
1	10035	1548	0
1	10070	1552	1
1	10070	1552	0
1	10109	1557	1
1	10109	1557	0
1	10131	1560	1
1	10131	1560	0
1	10153	1566	1
1	10153	1566	0
1	10195	1572	1
1	10195	1572	0
1	10291	1586	1
1	10291	1586	0
1	10323	1590	1
1	10323	1590	0
1	10353	1594	1
1	10353	1594	0
1	10398	1601	1
1	10398	1601	0
1	10399	1601	1
1	10405	1602	0
1	10414	1604	1
1	10414	1604	0
1	10419	1605	1
1	10421	1605	0
1	10437	1608	1
1	10437	1608	0
1	10446	1609	1
1	10448	1609	0
1	10463	1611	1
1	10463	1611	0
1	10481	1613	1
1	10481	1613	0
1	10514	1617	1
1	10514	1617	0
1	10548	1621	1
1	10548	1621	0
1	10564	1623	1
1	10579	1625	2
1	10580	1625	3
1	10581	1625	4
1	10597	1627	3
1	10605	1628	2
1	10612	1629	1
1	10625	1630	0
1	10710	1644	1
1	10710	1644	0
1	10718	1645	1
1	10720	1645	0
1	10753	1649	1
1	10753	1649	0
1	10844	1662	1
1	10844	1662	0
1	10891	1672	1
1	10891	1672	0
1	10908	1674	1
1	10908	1674	0
1	10921	1677	1
1	10921	1677	0
1	11039	1700	1
1	11039	1700	0
1	11102	1710	1
1	11102	1710	0
1	11128	1719	1
1	11128	1719	0
1	11166	1725	1
1	11166	1725	0
1	11175	1726	1
1	11177	1726	0
1	11202	1730	1
1	11202	1730	0
1	11307	1750	1
1	11307	1750	0
1	11308	1750	1
1	11317	1751	0
1	11366	1758	1
1	11366	1758	0
1	11367	1758	1
1	11374	1759	2
1	11376	1759	1
1	11382	1760	0
1	11387	1761	1
1	11391	1761	0
1	11410	1764	1
1	11410	1764	0
1	11415	1765	1
1	11418	1765	0
1	11442	1770	1
1	11442	1770	0
1	11472	1775	1
1	11472	1775	0
1	11492	1778	1
1	11492	1778	0
1	11493	1778	1
1	11505	1779	0
1	11514	1780	1
1	11516	1780	0
1	11547	1787	1
1	11547	1787	0
1	11645	1809	1
1	11645	1809	0
1	11646	1809	1
1	11656	1810	0
1	11663	1811	1
1	11666	1811	0
1	11698	1815	1
1	11698	1815	0
1	11734	1819	1
1	11734	1819	0
1	11890	1841	1
1	11890	1841	0
1	11909	1843	1
1	11909	1843	0
1	11918	1844	1
1	11923	1844	0
1	11942	1846	1
1	11942	1846	0
1	11951	1847	1
1	11954	1847	0
1	11978	1850	1
1	11978	1850	0
1	11979	1850	1
1	11990	1851	0
1	12042	1858	1
1	12042	1858	0
1	12073	1866	1
1	12073	1866	0
1	12083	1867	1
1	12085	1867	0
1	12092	1868	1
1	12094	1868	0
1	12109	1871	1
1	12109	1871	0
1	12137	1875	1
1	12137	1875	0
1	12155	1877	1
1	12155	1877	0
1	12204	1883	1
1	12204	1883	0
1	12205	1883	1
1	12218	1884	0
1	12241	1887	1
1	12241	1887	0
1	12263	1889	1
1	12263	1889	0
1	12264	1889	1
1	12277	1890	0
1	12334	1898	1
1	12334	1898	0
1	12353	1900	1
1	12353	1900	0
1	12394	1908	1
1	12394	1908	0
1	12419	1913	1
1	12419	1913	0
1	12448	1920	1
1	12448	1920	0
1	12453	1921	1
1	12471	1924	2
1	12474	1925	3
1	12478	1926	2
1	12489	1927	1
1	12498	1928	2
1	12501	1928	1
1	12514	1929	0
1	12538	1932	1
1	12538	1932	0
1	12562	1935	1
1	12562	1935	0
1	12589	1940	1
1	12589	1940	0
1	12609	1943	1
1	12609	1943	0
1	12646	1951	1
1	12646	1951	0
1	12651	1952	1
1	12653	1952	0
1	12658	1953	1
1	12660	1953	0
1	12692	1959	1
1	12692	1959	0
1	12704	1961	1
1	12704	1961	0
1	12727	1964	1
1	12727	1964	0
1	12732	1965	1
1	12734	1965	0
1	12739	1966	1
1	12740	1966	2
1	12743	1966	1
1	12754	1967	0
1	12839	1985	1
1	12839	1985	0
1	12844	1986	1
1	12846	1986	0
1	12899	1996	1
1	12899	1996	0
1	12950	2009	1
1	12950	2009	0
1	12965	2010	1
1	12968	2010	0
1	12997	2014	1
1	12997	2014	0
1	13078	2028	1
1	13078	2028	0
1	13129	2036	1
1	13129	2036	0
1	13136	2037	1
1	13138	2037	0
1	13147	2039	1
1	13147	2039	0
1	13161	2041	1
1	13161	2041	0
1	13191	2046	1
1	13191	2046	0
1	13239	2052	1
1	13239	2052	0
1	13240	2052	1
1	13264	2055	2
1	13290	2058	1
1	13299	2059	2
1	13301	2059	1
1	13310	2060	2
1	13312	2060	1
1	13322	2061	0
1	13331	2062	1
1	13334	2062	0
1	13365	2066	1
1	13365	2066	0
1	13405	2071	1
1	13405	2071	0
1	13500	2090	1
1	13500	2090	0
1	13533	2097	1
1	13533	2097	0
1	13559	2100	1
1	13559	2100	0
1	13560	2100	1
1	13561	2100	2
1	13571	2101	1
1	13578	2102	2
1	13581	2102	1
1	13591	2103	0
1	13600	2105	1
1	13600	2105	0
1	13619	2108	1
1	13619	2108	0
1	13626	2109	1
1	13629	2109	0
1	13678	2119	1
1	13678	2119	0
1	13701	2124	1
1	13701	2124	0
1	13712	2126	1
1	13712	2126	0
1	13757	2132	1
1	13757	2132	0
1	13804	2138	1
1	13804	2138	0
1	13834	2142	1
1	13834	2142	0
1	13967	2166	1
1	13967	2166	0
1	13979	2168	1
1	13979	2168	0
1	14019	2175	1
1	14019	2175	0
1	14028	2176	1
1	14030	2176	0
1	14043	2179	1
1	14043	2179	0
1	14044	2179	1
1	14053	2180	0
1	14068	2184	1
1	14068	2184	0
1	14073	2185	1
1	14079	2185	0
1	14164	2199	1
1	14164	2199	0
1	14178	2202	1
1	14178	2202	0
1	14179	2202	1
1	14191	2203	0
1	14289	2219	1
1	14289	2219	0
1	14294	2220	1
1	14296	2220	0
1	14301	2221	1
1	14303	2221	0
1	14308	2222	1
1	14310	2222	0
1	14315	2223	1
1	14317	2223	0
1	14343	2227	1
1	14343	2227	0
1	14377	2233	1
1	14377	2233	0
1	14416	2245	1
1	14416	2245	0
1	14417	2245	1
1	14426	2246	0
1	14496	2260	1
1	14496	2260	0
1	14517	2263	1
1	14517	2263	0
1	14522	2264	1
1	14523	2264	2
1	14529	2264	1
1	14536	2265	2
1	14541	2265	1
1	14551	2266	0
1	14642	2281	1
1	14642	2281	0
1	14651	2282	1
1	14654	2282	0
1	14663	2283	1
1	14665	2283	0
1	14684	2289	1
1	14684	2289	0
1	14698	2291	1
1	14698	2291	0
1	14699	2291	1
1	14705	2292	0
1	14742	2303	1
1	14742	2303	0
1	14777	2308	1
1	14777	2308	0
1	14824	2315	1
1	14824	2315	0
1	14844	2317	1
1	14844	2317	0
1	14872	2321	1
1	14872	2321	0
1	14881	2322	1
1	14883	2322	0
1	14890	2323	1
1	14894	2323	0
1	14940	2330	1
1	14940	2330	0
1	14959	2332	1
1	14959	2332	0
1	14970	2334	1
1	14970	2334	0
1	14984	2336	1
1	14984	2336	0
1	14989	2337	1
1	14991	2337	0
1	15010	2344	1
1	15010	2344	0
1	15015	2345	1
1	15017	2345	0
1	15036	2348	1
1	15036	2348	0
1	15052	2350	1
1	15052	2350	0
1	15053	2350	1
1	15063	2351	0
1	15078	2353	1
1	15078	2353	0
1	15102	2356	1
1	15102	2356	0
1	15112	2357	1
1	15114	2357	0
1	15147	2363	1
1	15147	2363	0
1	15162	2365	1
1	15162	2365	0
1	15192	2370	1
1	15192	2370	0
1	15193	2370	1
1	15204	2371	0
1	15230	2374	1
1	15230	2374	0
1	15267	2380	1
1	15267	2380	0
1	15278	2383	1
1	15278	2383	0
1	15286	2384	1
1	15287	2384	2
1	15293	2384	1
1	15303	2385	0
1	15359	2395	1
1	15359	2395	0
1	15360	2395	1
1	15370	2396	0
1	15388	2398	1
1	15388	2398	0
1	15415	2401	1
1	15415	2401	0
1	15435	2403	1
1	15435	2403	0
1	15503	2412	1
1	15503	2412	0
1	15521	2414	1
1	15521	2414	0
1	15572	2421	1
1	15572	2421	0
1	15594	2428	1
1	15594	2428	0
1	15609	2431	1
1	15609	2431	0
1	15629	2434	1
1	15629	2434	0
1	15656	2437	1
1	15656	2437	0
1	15697	2443	1
1	15697	2443	0
1	15788	2456	1
1	15788	2456	0
1	15813	2459	1
1	15813	2459	0
1	15852	2464	1
1	15852	2464	0
1	15876	2467	1
1	15876	2467	0
1	15902	2470	1
1	15902	2470	0
1	15957	2479	1
1	15957	2479	0
1	16007	2487	1
1	16007	2487	0
1	16040	2492	1
1	16040	2492	0
1	16079	2503	1
1	16079	2503	0
1	16121	2510	1
1	16121	2510	0
1	16171	2516	1
1	16171	2516	0
1	16189	2518	1
1	16189	2518	0
1	16209	2520	1
1	16209	2520	0
1	16233	2523	1
1	16233	2523	0
1	16242	2524	1
1	16245	2524	0
1	16297	2535	1
1	16297	2535	0
1	16298	2535	1
1	16308	2536	2
1	16310	2536	1
1	16321	2537	0
1	16446	2556	1
1	16446	2556	0
1	16551	2574	1
1	16551	2574	0
1	16552	2574	1
1	16561	2575	2
1	16563	2575	1
1	16573	2576	0
1	16639	2588	1
1	16639	2588	0
1	16640	2588	1
1	16646	2589	0
1	16655	2591	1
1	16655	2591	0
1	16718	2605	1
1	16718	2605	0
1	16741	2608	1
1	16741	2608	0
1	16750	2609	1
1	16754	2609	0
1	16771	2611	1
1	16771	2611	0
1	16802	2615	1
1	16802	2615	0
1	16827	2620	1
1	16827	2620	0
1	16855	2623	1
1	16855	2623	0
1	16915	2634	1
1	16915	2634	0
1	16955	2643	1
1	16955	2643	0
1	16977	2645	1
1	16977	2645	0
1	16978	2645	1
1	16989	2646	0
1	17074	2657	1
1	17074	2657	0