version 3
run Experimentos-181-20260514-09:21:04-4329
attr configname Experimentos
attr datetime 20260514-09:21:04
attr datetimef 20260514-092104
attr experiment Experimentos
attr inifile TwoQueues.ini
attr iterationvars "$p=0.6, $q=0.2, $Y=30, $m=3"
attr iterationvarsd p=0.6/q=0.2/Y=30/m=3
attr iterationvarsf p=0.6,q=0.2,Y=30,m=3-
attr measurement "$p=0.6, $q=0.2, $Y=30, $m=3"
attr network TwoQueues
attr processid 4329
attr repetition 1
attr replication #1
attr resultdir results
attr runnumber 181
attr seedset 181
itervar Y 30
itervar m 3
itervar p 0.6
itervar q 0.2
config description "Barrido completo de parámetros Proyecto 12"
config **.source1.p 0.6
config **.source1.q 0.2
config **.source2.p 0.6
config **.source2.q 0.2
config **.serverWithMaintenance.Y 30
config **.serverWithMaintenance.m 3
config network TwoQueues
config cpu-time-limit 5000s
config sim-time-limit 5000s
config warmup-period 400s
config repeat 20
config output-scalar-file results/Experimentos-p=0.6,q=0.2,Y=30,m=3--#1.sca
config output-vector-file results/Experimentos-p=0.6,q=0.2,Y=30,m=3--#1.vec
config **.vector-recording true

vector 0 TwoQueues.serverWithMaintenance residenceTime2:vector ETV
attr recordingmode vector
attr source delay2
attr title "Residence Time Class 2"
vector 1 TwoQueues.queue2 queueLengthStats:vector ETV
attr recordingmode vector
attr source qlen
attr title "Average Queue Length"
vector 2 TwoQueues.queue1 queueLengthStats:vector ETV
attr recordingmode vector
attr source qlen
attr title "Average Queue Length"
vector 3 TwoQueues.server residenceTime1:vector ETV
attr recordingmode vector
attr source delay1
attr title "Residence Time Class 1"
vector 4 TwoQueues.server throughputStats1:vector ETV
attr recordingmode vector
attr source throughput1
attr title "Throughput Class 1"
0	2622	404	1
0	2695	414	1
0	2719	419	1
0	2731	421	1
0	2751	426	1
0	2863	444	1
0	2872	445	2
0	2940	454	1
0	2984	460	1
0	3004	462	1
0	3041	468	1
0	3058	470	1
0	3076	473	1
0	3122	480	1
0	3143	482	1
0	3161	484	1
0	3172	485	2
0	3185	486	1
0	3210	490	1
0	3233	495	1
0	3272	500	1
0	3341	510	1
0	3355	511	2
0	3365	512	2
0	3383	514	1
0	3420	520	1
0	3574	548	1
0	3593	550	1
0	3632	556	1
0	3639	557	1
0	3659	562	1
0	3671	563	1
0	3682	564	2
0	3693	565	1
0	3720	569	1
0	3748	572	1
0	3772	576	1
0	3796	580	2
0	3807	581	1
0	3859	588	1
0	3994	609	1
0	4032	613	1
0	4055	616	1
0	4101	625	1
0	4114	629	1
0	4156	635	1
0	4170	637	1
0	4216	645	1
0	4226	646	1
0	4244	648	1
0	4263	650	1
0	4280	652	1
0	4305	657	1
0	4315	658	1
0	4414	673	1
0	4458	680	1
0	4507	688	1
0	4543	696	1
0	4550	697	1
0	4557	698	1
0	4568	701	1
0	4575	702	1
0	4617	708	1
0	4653	715	1
0	4674	719	1
0	4681	720	1
0	4703	726	1
0	4723	730	4
0	4730	731	4
0	4740	732	2
0	4876	751	1
0	4890	753	1
0	4902	755	1
0	4974	770	1
0	4990	773	1
0	5000	774	1
0	5030	780	1
0	5076	786	1
0	5190	803	1
0	5239	809	1
0	5250	810	1
0	5267	812	1
0	5296	816	1
0	5315	819	1
0	5335	821	1
0	5345	822	2
0	5382	829	1
0	5438	837	1
0	5481	843	1
0	5536	850	1
0	5578	856	1
0	5646	867	1
0	5667	872	1
0	5673	873	2
0	5705	878	1
0	5731	882	1
0	5772	890	1
0	5813	896	1
0	5836	899	1
0	5894	913	1
0	5922	917	1
0	6071	940	1
0	6097	943	1
0	6154	950	1
0	6183	953	1
0	6291	968	1
0	6347	976	1
0	6358	977	1
0	6375	979	1
0	6387	980	1
0	6429	987	1
0	6443	990	1
0	6473	995	1
0	6482	997	1
0	6498	1000	1
0	6512	1002	1
0	6525	1006	1
0	6560	1014	1
0	6578	1016	1
0	6589	1017	1
0	6646	1028	1
0	6665	1031	1
0	6699	1038	1
0	6715	1041	1
0	6726	1044	1
0	6781	1053	1
0	6822	1061	1
0	6849	1065	4
0	6867	1069	1
0	6894	1073	1
0	6925	1078	1
0	6932	1079	1
0	6946	1081	1
0	6976	1086	1
0	7001	1090	1
0	7026	1095	1
0	7038	1096	1
0	7121	1107	1
0	7182	1118	1
0	7224	1126	1
0	7236	1127	1
0	7245	1128	2
0	7285	1137	1
0	7298	1138	1
0	7310	1139	1
0	7362	1147	1
0	7473	1163	1
0	7485	1164	1
0	7514	1167	1
0	7554	1172	1
0	7625	1183	1
0	7639	1185	1
0	7665	1187	1
0	7676	1188	2
0	7693	1190	1
0	7781	1202	1
0	7798	1204	1
0	7834	1208	4
0	7844	1209	5
0	7878	1213	1
0	7888	1214	2
0	7914	1217	1
0	7995	1228	1
0	8021	1232	1
0	8035	1235	1
0	8134	1251	1
0	8158	1256	1
0	8165	1257	2
0	8174	1258	2
0	8194	1261	1
0	8257	1275	1
0	8269	1277	1
0	8334	1285	1
0	8386	1292	1
0	8410	1295	1
0	8420	1296	2
0	8448	1299	1
0	8495	1307	1
0	8505	1308	2
0	8555	1314	1
0	8566	1315	1
0	8674	1332	1
0	8681	1333	1
0	8690	1335	1
0	8721	1343	1
0	8767	1356	1
0	8774	1357	1
0	8790	1361	2
0	8816	1365	1
0	8837	1368	1
0	8856	1370	1
0	8885	1374	1
0	8897	1375	2
0	8937	1383	1
0	9059	1404	1
0	9080	1407	1
0	9140	1416	1
0	9174	1420	1
0	9213	1426	1
0	9275	1436	1
0	9287	1437	1
0	9312	1442	1
0	9329	1444	1
0	9340	1445	2
0	9352	1446	2
0	9364	1447	2
0	9377	1448	2
0	9388	1449	1
0	9437	1458	1
0	9477	1464	1
0	9554	1479	1
0	9568	1482	1
0	9587	1484	1
0	9610	1487	1
0	9662	1499	1
0	9673	1500	1
0	9725	1511	1
0	9761	1516	1
0	9817	1523	1
0	9834	1525	1
0	9844	1526	1
0	9928	1543	1
0	9987	1551	1
0	10017	1554	1
0	10037	1556	1
0	10054	1558	1
0	10089	1562	1
0	10099	1563	2
0	10110	1564	1
0	10128	1566	1
0	10138	1567	2
0	10150	1569	1
0	10227	1579	1
0	10279	1586	1
0	10320	1592	1
0	10331	1593	1
0	10395	1604	1
0	10422	1607	1
0	10432	1608	2
0	10445	1609	3
0	10455	1610	2
0	10519	1620	1
0	10531	1621	1
0	10541	1622	1
0	10551	1623	1
0	10562	1625	1
0	10575	1628	1
0	10597	1632	3
0	10610	1633	3
0	10620	1634	3
0	10638	1636	1
0	10649	1637	1
0	10673	1641	1
0	10719	1647	1
0	10745	1651	1
0	10806	1660	1
0	10824	1662	1
0	10852	1666	1
0	10885	1671	1
0	10917	1677	1
0	10924	1678	1
0	10977	1687	1
0	11035	1695	1
0	11054	1698	1
0	11065	1701	1
0	11145	1716	1
0	11163	1719	1
0	11173	1720	1
0	11182	1722	1
0	11226	1730	1
0	11242	1732	1
0	11249	1733	1
0	11265	1736	1
0	11272	1737	1
0	11346	1749	1
0	11435	1762	1
0	11455	1765	1
0	11494	1769	3
0	11504	1770	3
0	11514	1771	4
0	11540	1774	1
0	11572	1779	1
0	11601	1784	1
0	11619	1786	1
0	11662	1794	1
0	11699	1801	1
0	11739	1809	1
0	11772	1814	1
0	11795	1818	1
0	11863	1830	1
0	11901	1835	1
0	11913	1836	1
0	11929	1840	1
0	11943	1841	1
0	11958	1842	2
0	11970	1843	2
0	11999	1847	1
0	12121	1867	1
0	12148	1870	1
0	12173	1873	1
0	12184	1874	1
0	12194	1875	1
0	12220	1878	1
0	12233	1879	1
0	12245	1880	2
0	12256	1881	2
0	12266	1882	3
0	12287	1886	6
0	12297	1887	1
0	12323	1890	1
0	12409	1902	1
0	12420	1903	1
0	12441	1905	1
0	12452	1906	2
0	12485	1910	1
0	12539	1917	1
0	12558	1919	1
0	12610	1926	1
0	12623	1927	1
0	12633	1928	2
0	12654	1932	1
0	12685	1937	1
0	12691	1938	2
0	12701	1939	1
0	12716	1942	1
0	12728	1944	1
0	12736	1945	1
0	12742	1946	2
0	12778	1954	1
0	12834	1962	1
0	12876	1967	1
0	12893	1969	1
0	12925	1973	1
0	12964	1982	1
0	12985	1985	1
0	13003	1987	1
0	13069	2002	1
0	13088	2006	1
0	13109	2008	1
0	13133	2011	1
0	13188	2019	1
0	13366	2044	1
0	13422	2051	1
0	13433	2052	2
0	13447	2053	2
0	13458	2054	2
0	13468	2055	2
0	13485	2057	1
0	13494	2059	1
0	13512	2063	1
0	13549	2070	1
0	13606	2083	1
0	13636	2087	1
0	13646	2088	2
0	13681	2092	1
0	13715	2097	1
0	13785	2108	1
0	13849	2123	1
0	13873	2127	1
0	13892	2129	1
0	13903	2130	1
0	14063	2153	1
0	14070	2154	2
0	14080	2155	2
0	14091	2156	1
0	14109	2160	1
0	14205	2173	1
0	14238	2177	1
0	14347	2195	1
0	14413	2206	1
0	14424	2207	1
0	14435	2208	1
0	14466	2212	1
0	14484	2215	1
0	14666	2247	1
0	14675	2249	1
0	14690	2251	1
0	14696	2252	2
0	14715	2255	1
0	14773	2268	1
0	14828	2276	1
0	14847	2278	1
0	14869	2281	1
0	14877	2282	1
0	14883	2283	2
0	14906	2288	1
0	14922	2290	1
0	14947	2295	1
0	14954	2296	1
0	14961	2297	1
0	14968	2298	1
0	14975	2299	1
0	14993	2303	1
0	15016	2308	1
0	15034	2310	1
0	15123	2323	1
0	15143	2325	1
0	15226	2338	1
0	15242	2341	1
0	15281	2349	1
0	15336	2362	1
0	15347	2363	2
0	15397	2369	1
0	15444	2375	1
0	15463	2377	1
0	15478	2378	1
0	15502	2381	1
0	15526	2384	1
0	15552	2387	1
0	15583	2391	1
0	15608	2395	1
0	15622	2397	1
0	15641	2400	1
0	15650	2401	2
0	15695	2408	1
0	15701	2409	2
0	15715	2411	1
0	15740	2417	1
0	15765	2420	1
0	15779	2421	1
0	15890	2436	1
0	15924	2443	1
0	15954	2447	1
0	15973	2449	1
0	16010	2455	1
0	16045	2461	1
0	16056	2462	2
0	16084	2466	5
0	16093	2467	3
0	16168	2477	1
0	16181	2478	1
0	16236	2485	1
0	16280	2490	1
0	16314	2494	1
0	16442	2513	1
0	16454	2514	1
0	16488	2518	1
0	16541	2526	1
0	16596	2535	1
0	16606	2536	1
0	16615	2538	1
0	16626	2540	1
0	16646	2542	1
0	16684	2551	1
0	16695	2552	1
0	16724	2556	1
0	16756	2561	1
0	16782	2564	1
0	16801	2566	1
0	16834	2570	1
0	16857	2573	1
0	16907	2580	1
0	17016	2599	1
0	17042	2602	1
0	17102	2612	1
0	17113	2613	1
0	17148	2618	1
0	17188	2624	1
0	17209	2628	1
0	17225	2630	1
0	17269	2637	1
0	17278	2639	1
0	17317	2647	1
0	17366	2653	1
0	17410	2659	1
0	17422	2661	1
0	17469	2668	1
0	17481	2669	1
0	17522	2675	1
0	17557	2682	1
0	17575	2685	1
0	17586	2687	1
0	17615	2691	1
0	17640	2694	1
0	17673	2700	1
0	17696	2703	1
0	17712	2706	1
0	17724	2708	1
0	17743	2710	1
0	17752	2711	2
0	17843	2734	1
0	17881	2739	1
0	17919	2747	1
0	17968	2755	1
0	18004	2762	1
0	18053	2773	1
0	18074	2776	1
0	18101	2781	1
0	18113	2782	1
0	18124	2783	1
0	18136	2785	1
0	18150	2787	1
0	18157	2788	1
0	18193	2796	1
0	18268	2810	1
0	18281	2812	1
0	18287	2813	2
0	18333	2822	1
0	18367	2827	1
0	18422	2837	1
0	18452	2844	1
0	18546	2860	1
0	18553	2861	1
0	18575	2866	1
0	18609	2874	1
0	18662	2883	1
0	18676	2884	1
0	18706	2888	1
0	18724	2890	1
0	18736	2891	2
0	18745	2892	2
0	18791	2900	1
0	18803	2902	1
0	18815	2903	2
0	18826	2904	2
0	18837	2905	1
0	18843	2906	2
0	18871	2910	3
0	18882	2911	3
0	18914	2915	1
0	18966	2926	1
0	19010	2934	1
0	19028	2938	1
0	19041	2942	1
0	19057	2944	1
0	19113	2953	1
0	19168	2961	1
0	19227	2973	1
0	19239	2974	1
0	19251	2975	2
0	19319	2985	1
0	19338	2987	1
0	19361	2991	1
0	19379	2996	1
0	19405	2999	1
0	19457	3006	1
0	19523	3017	1
0	19594	3030	1
0	19606	3031	1
0	19667	3040	1
0	19678	3041	1
0	19713	3046	1
0	19756	3052	1
0	19850	3064	1
0	19886	3068	1
0	19903	3070	1
0	20008	3085	1
0	20040	3089	3
0	20052	3090	3
0	20095	3096	1
0	20105	3097	1
0	20165	3106	1
0	20176	3107	1
0	20217	3116	1
0	20234	3118	1
0	20268	3124	1
0	20280	3125	1
0	20296	3129	1
0	20323	3135	1
0	20360	3146	1
0	20369	3148	1
0	20376	3149	1
0	20469	3164	1
0	20487	3167	1
0	20543	3180	1
0	20566	3183	1
0	20580	3185	1
0	20612	3189	1
0	20622	3190	2
0	20632	3191	3
0	20642	3192	1
0	20747	3216	1
0	20777	3221	1
0	20819	3226	1
0	20875	3235	1
0	20888	3236	1
0	20914	3239	1
0	20940	3243	2
0	20962	3249	1
0	20969	3250	1
0	21025	3263	1
0	21050	3268	1
0	21060	3269	1
0	21075	3270	1
0	21086	3271	1
0	21137	3281	1
0	21148	3282	2
0	21166	3284	1
0	21199	3288	1
0	21210	3289	1
0	21311	3305	1
0	21335	3308	1
0	21346	3310	1
0	21420	3320	1
0	21429	3321	2
0	21498	3331	1
0	21508	3332	1
0	21528	3336	1
0	21540	3338	1
0	21590	3348	1
0	21601	3351	1
0	21608	3352	1
0	21617	3354	1
0	21663	3362	1
0	21683	3366	1
0	21732	3374	1
0	21749	3377	1
0	21785	3381	5
0	21795	3382	2
0	21825	3386	1
0	21836	3387	1
0	21846	3388	1
0	21885	3393	1
0	21905	3395	1
0	21957	3402	1
0	21996	3406	1
0	22007	3407	1
0	22039	3411	1
0	22075	3416	1
0	22095	3420	1
0	22148	3433	1
0	22187	3438	1
0	22224	3443	1
0	22235	3444	1
0	22258	3449	1
0	22265	3450	1
0	22297	3456	1
0	22311	3457	2
0	22333	3459	1
0	22369	3464	1
0	22487	3481	1
0	22520	3485	1
0	22531	3486	1
0	22708	3523	1
0	22728	3526	1
0	22734	3527	2
0	22756	3531	1
0	22799	3538	1
0	22819	3541	1
0	22852	3545	1
0	22877	3548	1
0	22888	3549	2
0	22899	3550	3
0	22921	3552	1
0	22972	3559	1
0	23070	3575	1
0	23094	3579	1
0	23105	3581	1
0	23122	3584	1
0	23131	3585	2
0	23243	3602	1
0	23254	3603	1
0	23311	3613	1
0	23350	3618	1
0	23535	3652	1
0	23570	3662	1
0	23577	3663	1
0	23584	3664	1
0	23593	3666	1
0	23615	3671	1
0	23676	3682	1
0	23682	3683	2
0	23723	3689	1
0	23763	3695	1
0	23838	3716	1
0	23876	3721	1
0	23905	3727	1
0	23927	3731	1
0	23960	3735	1
0	23979	3737	1
0	23990	3738	1
0	24036	3744	1
0	24056	3746	1
0	24067	3747	1
0	24091	3750	1
0	24138	3757	1
0	24157	3761	1
0	24207	3767	1
0	24257	3774	1
0	24289	3780	1
0	24312	3783	1
0	24322	3784	2
0	24334	3785	1
0	24395	3792	1
0	24430	3796	1
0	24460	3800	1
0	24496	3805	1
0	24520	3808	1
0	24555	3814	1
0	24562	3815	1
0	24578	3818	1
0	24639	3826	1
0	24659	3828	1
0	24681	3830	1
0	24692	3831	2
0	24704	3832	1
0	24773	3843	1
0	24794	3847	2
0	24818	3849	1
0	24842	3852	1
0	24863	3854	1
0	24879	3855	1
0	24921	3861	1
0	24979	3869	1
0	25013	3875	1
0	25058	3885	1
0	25068	3886	2
0	25155	3900	1
0	25167	3901	1
0	25187	3903	1
0	25272	3915	1
0	25282	3916	2
0	25307	3922	1
0	25355	3930	1
0	25367	3931	1
0	25405	3941	1
0	25414	3943	1
0	25467	3950	1
0	25498	3954	1
0	25556	3963	1
0	25601	3973	1
0	25617	3975	1
0	25662	3981	1
0	25672	3982	1
0	25679	3983	1
0	25688	3985	1
0	25788	4010	1
0	25906	4032	1
0	26009	4048	1
0	26055	4054	1
0	26078	4057	1
0	26100	4061	1
0	26137	4068	1
0	26160	4072	1
0	26206	4082	1
0	26247	4090	1
0	26266	4092	1
0	26275	4093	2
0	26292	4095	1
0	26301	4096	2
0	26325	4098	1
0	26335	4099	2
0	26367	4103	1
0	26397	4107	1
0	26417	4109	1
0	26428	4110	1
0	26503	4120	1
0	26526	4122	1
0	26556	4126	1
0	26567	4127	1
0	26664	4143	1
0	26697	4148	1
0	26715	4153	1
0	26812	4176	1
0	26818	4177	2
0	26894	4188	1
0	26929	4195	1
0	26950	4199	3
0	26956	4200	3
0	26962	4201	4
0	26971	4203	1
0	27011	4213	1
0	27020	4215	1
0	27031	4218	1
0	27082	4226	1
0	27121	4231	1
0	27162	4238	1
0	27168	4239	2
0	27175	4240	1
0	27188	4242	1
0	27216	4245	1
0	27227	4246	1
0	27247	4248	1
0	27258	4249	2
0	27269	4250	2
0	27281	4251	2
0	27305	4254	1
0	27315	4255	1
0	27345	4259	1
0	27355	4260	1
0	27373	4264	1
0	27447	4280	1
0	27493	4287	1
0	27530	4295	1
0	27540	4296	1
0	27552	4297	1
0	27623	4309	1
0	27643	4315	1
0	27653	4316	1
0	27670	4318	1
0	27724	4325	1
0	27791	4336	1
0	27805	4337	1
0	27815	4338	2
0	27826	4339	1
0	27836	4340	1
0	27853	4342	1
0	27864	4343	2
0	27892	4348	1
0	27899	4349	1
0	27906	4350	1
0	27925	4353	1
0	27946	4356	1
0	27959	4357	2
0	27969	4358	2
0	27981	4359	1
0	28007	4362	1
0	28023	4366	1
0	28030	4367	1
0	28041	4370	1
0	28066	4375	1
0	28088	4381	1
0	28104	4384	1
0	28132	4388	1
0	28148	4391	1
0	28178	4395	1
0	28194	4398	1
0	28330	4421	1
0	28363	4425	1
0	28408	4431	1
0	28423	4432	2
0	28453	4436	1
0	28464	4437	2
0	28511	4443	1
0	28525	4444	1
0	28564	4449	1
0	28621	4457	1
0	28639	4461	1
0	28673	4468	1
0	28772	4487	1
0	28778	4488	2
0	28829	4495	1
0	28841	4497	1
0	28882	4503	1
0	28892	4504	2
0	28955	4514	1
0	28992	4520	1
0	29017	4525	1
0	29035	4528	1
0	29045	4529	1
0	29054	4531	1
0	29071	4536	1
0	29081	4537	1
0	29149	4548	1
0	29236	4560	1
0	29276	4565	1
0	29311	4570	1
0	29360	4580	1
0	29435	4592	1
0	29444	4593	2
0	29456	4594	1
0	29503	4600	1
0	29514	4601	1
0	29539	4604	1
0	29579	4610	1
0	29586	4611	2
0	29596	4612	2
0	29604	4613	2
0	29623	4618	1
0	29645	4621	1
0	29656	4624	1
0	29736	4639	1
0	29866	4659	1
0	29884	4663	1
0	29922	4668	1
0	29964	4673	1
0	30065	4691	1
0	30117	4701	1
0	30135	4706	1
0	30144	4708	1
0	30165	4711	1
0	30247	4726	1
0	30263	4730	1
0	30289	4733	1
0	30306	4735	1
0	30324	4737	1
0	30337	4738	1
0	30365	4742	4
0	30371	4743	4
0	30380	4744	3
0	30398	4745	1
0	30415	4747	1
0	30501	4760	1
0	30528	4763	1
0	30540	4764	1
0	30600	4774	1
0	30618	4777	1
0	30687	4788	1
0	30739	4795	1
0	30778	4800	1
0	30838	4808	1
0	30930	4824	1
0	30948	4827	1
0	30992	4833	1
0	31034	4839	1
0	31046	4841	1
0	31053	4842	1
0	31073	4846	1
0	31124	4853	1
0	31149	4856	1
0	31176	4860	1
0	31239	4870	1
0	31319	4881	1
0	31377	4890	1
0	31393	4892	1
0	31408	4894	1
0	31477	4904	1
0	31503	4908	2
0	31541	4915	1
0	31550	4916	2
0	31582	4921	1
0	31591	4923	1
0	31601	4924	1
0	31641	4929	1
0	31650	4930	2
0	31664	4932	1
0	31701	4938	1
0	31733	4943	1
0	31750	4945	1
0	31797	4952	1
0	31864	4963	1
0	31917	4970	1
0	31927	4971	1
0	31955	4975	1
0	31973	4979	1
0	31980	4980	1
0	32008	4984	1
0	32039	4988	1
0	32084	4995	1
1	2618	403	1
1	2618	403	0
1	2688	413	1
1	2688	413	0
1	2713	418	1
1	2713	418	0
1	2727	420	1
1	2727	420	0
1	2747	425	1
1	2747	425	0
1	2858	443	1
1	2858	443	0
1	2859	443	1
1	2866	444	0
1	2931	453	1
1	2931	453	0
1	2976	459	1
1	2976	459	0
1	2996	461	1
1	2996	461	0
1	3037	467	1
1	3037	467	0
1	3050	469	1
1	3050	469	0
1	3072	472	1
1	3072	472	0
1	3115	479	1
1	3115	479	0
1	3134	481	1
1	3134	481	0
1	3153	483	1
1	3153	483	0
1	3154	483	1
1	3165	484	0
1	3174	485	1
1	3178	485	0
1	3206	489	1
1	3206	489	0
1	3226	494	1
1	3226	494	0
1	3265	499	1
1	3265	499	0
1	3333	509	1
1	3333	509	0
1	3334	509	1
1	3343	510	2
1	3348	510	1
1	3358	511	0
1	3375	513	1
1	3375	513	0
1	3416	519	1
1	3416	519	0
1	3567	547	1
1	3567	547	0
1	3584	549	1
1	3584	549	0
1	3628	555	1
1	3628	555	0
1	3633	556	1
1	3635	556	0
1	3655	561	1
1	3655	561	0
1	3660	562	1
1	3661	562	2
1	3665	562	1
1	3676	563	0
1	3683	564	1
1	3687	564	0
1	3712	568	1
1	3712	568	0
1	3738	571	1
1	3738	571	0
1	3768	575	1
1	3768	575	0
1	3778	578	1
1	3788	579	0
1	3798	580	1
1	3800	580	0
1	3852	587	1
1	3852	587	0
1	3985	608	1
1	3985	608	0
1	4025	612	1
1	4025	612	0
1	4048	615	1
1	4048	615	0
1	4097	624	1
1	4097	624	0
1	4110	628	1
1	4110	628	0
1	4150	634	1
1	4150	634	0
1	4164	636	1
1	4164	636	0
1	4210	644	1
1	4210	644	0
1	4217	645	1
1	4220	645	0
1	4237	647	1
1	4237	647	0
1	4256	649	1
1	4256	649	0
1	4274	651	1
1	4274	651	0
1	4301	656	1
1	4301	656	0
1	4306	657	1
1	4309	657	0
1	4407	672	1
1	4407	672	0
1	4451	679	1
1	4451	679	0
1	4499	687	1
1	4499	687	0
1	4539	695	1
1	4539	695	0
1	4544	696	1
1	4546	696	0
1	4551	697	1
1	4553	697	0
1	4564	700	1
1	4564	700	0
1	4569	701	1
1	4571	701	0
1	4607	707	1
1	4607	707	0
1	4647	714	1
1	4647	714	0
1	4670	718	1
1	4670	718	0
1	4675	719	1
1	4677	719	0
1	4699	725	1
1	4699	725	0
1	4704	726	1
1	4708	727	2
1	4719	729	1
1	4724	730	2
1	4726	730	1
1	4734	731	0
1	4869	750	1
1	4869	750	0
1	4884	752	1
1	4884	752	0
1	4898	754	1
1	4898	754	0
1	4968	769	1
1	4968	769	0
1	4984	772	1
1	4984	772	0
1	4992	773	1
1	4994	773	0
1	5023	779	1
1	5023	779	0
1	5069	785	1
1	5069	785	0
1	5183	802	1
1	5183	802	0
1	5232	808	1
1	5232	808	0
1	5241	809	1
1	5243	809	0
1	5260	811	1
1	5260	811	0
1	5289	815	1
1	5289	815	0
1	5311	818	1
1	5311	818	0
1	5323	820	1
1	5323	820	0
1	5324	820	1
1	5338	821	0
1	5376	828	1
1	5376	828	0
1	5430	836	1
1	5430	836	0
1	5472	842	1
1	5472	842	0
1	5529	849	1
1	5529	849	0
1	5570	855	1
1	5570	855	0
1	5642	866	1
1	5642	866	0
1	5662	871	1
1	5662	871	0
1	5663	871	1
1	5669	872	0
1	5698	877	1
1	5698	877	0
1	5727	881	1
1	5727	881	0
1	5768	889	1
1	5768	889	0
1	5805	895	1
1	5805	895	0
1	5830	898	1
1	5830	898	0
1	5888	912	1
1	5888	912	0
1	5916	916	1
1	5916	916	0
1	6061	939	1
1	6061	939	0
1	6090	942	1
1	6090	942	0
1	6146	949	1
1	6146	949	0
1	6175	952	1
1	6175	952	0
1	6281	967	1
1	6281	967	0
1	6340	975	1
1	6340	975	0
1	6349	976	1
1	6351	976	0
1	6368	978	1
1	6368	978	0
1	6377	979	1
1	6380	979	0
1	6423	986	1
1	6423	986	0
1	6439	989	1
1	6439	989	0
1	6467	994	1
1	6467	994	0
1	6478	996	1
1	6478	996	0
1	6494	999	1
1	6494	999	0
1	6506	1001	1
1	6506	1001	0
1	6521	1005	1
1	6521	1005	0
1	6552	1013	1
1	6552	1013	0
1	6571	1015	1
1	6571	1015	0
1	6580	1016	1
1	6582	1016	0
1	6640	1027	1
1	6640	1027	0
1	6659	1030	1
1	6659	1030	0
1	6693	1037	1
1	6693	1037	0
1	6711	1040	1
1	6711	1040	0
1	6722	1043	1
1	6722	1043	0
1	6774	1052	1
1	6774	1052	0
1	6816	1060	1
1	6816	1060	0
1	6824	1061	1
1	6843	1064	0
1	6861	1068	1
1	6861	1068	0
1	6884	1072	1
1	6884	1072	0
1	6921	1077	1
1	6921	1077	0
1	6926	1078	1
1	6928	1078	0
1	6940	1080	1
1	6940	1080	0
1	6970	1085	1
1	6970	1085	0
1	6993	1089	1
1	6993	1089	0
1	7020	1094	1
1	7020	1094	0
1	7028	1095	1
1	7031	1095	0
1	7114	1106	1
1	7114	1106	0
1	7175	1117	1
1	7175	1117	0
1	7215	1125	1
1	7215	1125	0
1	7226	1126	1
1	7227	1126	2
1	7229	1126	1
1	7239	1127	0
1	7279	1136	1
1	7279	1136	0
1	7287	1137	1
1	7291	1137	0
1	7300	1138	1
1	7303	1138	0
1	7354	1146	1
1	7354	1146	0
1	7466	1162	1
1	7466	1162	0
1	7475	1163	1
1	7478	1163	0
1	7505	1166	1
1	7505	1166	0
1	7547	1171	1
1	7547	1171	0
1	7619	1182	1
1	7619	1182	0
1	7630	1184	1
1	7630	1184	0
1	7652	1186	1
1	7652	1186	0
1	7653	1186	1
1	7669	1187	0
1	7686	1189	1
1	7686	1189	0
1	7773	1201	1
1	7773	1201	0
1	7791	1203	1
1	7791	1203	0
1	7800	1204	1
1	7801	1204	2
1	7823	1207	1
1	7837	1208	0
1	7869	1212	1
1	7869	1212	0
1	7870	1212	1
1	7881	1213	0
1	7906	1216	1
1	7906	1216	0
1	7988	1227	1
1	7988	1227	0
1	8015	1231	1
1	8015	1231	0
1	8031	1234	1
1	8031	1234	0
1	8126	1250	1
1	8126	1250	0
1	8153	1255	1
1	8153	1255	0
1	8154	1255	1
1	8159	1256	2
1	8161	1256	1
1	8168	1257	0
1	8187	1260	1
1	8187	1260	0
1	8249	1274	1
1	8249	1274	0
1	8265	1276	1
1	8265	1276	0
1	8323	1284	1
1	8323	1284	0
1	8379	1291	1
1	8379	1291	0
1	8402	1294	1
1	8402	1294	0
1	8403	1294	1
1	8413	1295	0
1	8438	1298	1
1	8438	1298	0
1	8488	1306	1
1	8488	1306	0
1	8489	1306	1
1	8499	1307	0
1	8545	1313	1
1	8545	1313	0
1	8557	1314	1
1	8559	1314	0
1	8668	1331	1
1	8668	1331	0
1	8675	1332	1
1	8677	1332	0
1	8686	1334	1
1	8686	1334	0
1	8717	1342	1
1	8717	1342	0
1	8763	1355	1
1	8763	1355	0
1	8768	1356	1
1	8770	1356	0
1	8780	1359	1
1	8784	1360	0
1	8812	1364	1
1	8812	1364	0
1	8826	1367	1
1	8826	1367	0
1	8849	1369	1
1	8849	1369	0
1	8878	1373	1
1	8878	1373	0
1	8879	1373	1
1	8891	1374	0
1	8933	1382	1
1	8933	1382	0
1	9055	1403	1
1	9055	1403	0
1	9074	1406	1
1	9074	1406	0
1	9133	1415	1
1	9133	1415	0
1	9167	1419	1
1	9167	1419	0
1	9209	1425	1
1	9209	1425	0
1	9268	1435	1
1	9268	1435	0
1	9277	1436	1
1	9280	1436	0
1	9306	1441	1
1	9306	1441	0
1	9320	1443	1
1	9320	1443	0
1	9321	1443	1
1	9331	1444	2
1	9333	1444	1
1	9342	1445	2
1	9345	1445	1
1	9354	1446	2
1	9357	1446	1
1	9370	1447	0
1	9379	1448	1
1	9381	1448	0
1	9433	1457	1
1	9433	1457	0
1	9470	1463	1
1	9470	1463	0
1	9550	1478	1
1	9550	1478	0
1	9561	1481	1
1	9561	1481	0
1	9578	1483	1
1	9578	1483	0
1	9604	1486	1
1	9604	1486	0
1	9653	1498	1
1	9653	1498	0
1	9664	1499	1
1	9666	1499	0
1	9718	1510	1
1	9718	1510	0
1	9754	1515	1
1	9754	1515	0
1	9809	1522	1
1	9809	1522	0
1	9827	1524	1
1	9827	1524	0
1	9836	1525	1
1	9838	1525	0
1	9924	1542	1
1	9924	1542	0
1	9979	1550	1
1	9979	1550	0
1	10008	1553	1
1	10008	1553	0
1	10028	1555	1
1	10028	1555	0
1	10047	1557	1
1	10047	1557	0
1	10081	1561	1
1	10081	1561	0
1	10082	1561	1
1	10092	1562	0
1	10101	1563	1
1	10103	1563	0
1	10120	1565	1
1	10120	1565	0
1	10121	1565	1
1	10131	1566	0
1	10146	1568	1
1	10146	1568	0
1	10219	1578	1
1	10219	1578	0
1	10272	1585	1
1	10272	1585	0
1	10313	1591	1
1	10313	1591	0
1	10322	1592	1
1	10324	1592	0
1	10387	1603	1
1	10387	1603	0
1	10413	1606	1
1	10413	1606	0
1	10414	1606	1
1	10415	1606	2
1	10425	1607	1
1	10434	1608	2
1	10438	1608	1
1	10448	1609	0
1	10511	1619	1
1	10511	1619	0
1	10521	1620	1
1	10524	1620	0
1	10533	1621	1
1	10535	1621	0
1	10542	1622	1
1	10545	1622	0
1	10558	1624	1
1	10558	1624	0
1	10569	1627	1
1	10569	1627	0
1	10582	1629	1
1	10585	1630	2
1	10589	1631	1
1	10590	1631	2
1	10603	1632	1
1	10613	1633	0
1	10631	1635	1
1	10631	1635	0
1	10640	1636	1
1	10642	1636	0
1	10664	1640	1
1	10664	1640	0
1	10711	1646	1
1	10711	1646	0
1	10741	1650	1
1	10741	1650	0
1	10799	1659	1
1	10799	1659	0
1	10816	1661	1
1	10816	1661	0
1	10844	1665	1
1	10844	1665	0
1	10876	1670	1
1	10876	1670	0
1	10913	1676	1
1	10913	1676	0
1	10918	1677	1
1	10920	1677	0
1	10971	1686	1
1	10971	1686	0
1	11028	1694	1
1	11028	1694	0
1	11048	1697	1
1	11048	1697	0
1	11061	1700	1
1	11061	1700	0
1	11139	1715	1
1	11139	1715	0
1	11155	1718	1
1	11155	1718	0
1	11165	1719	1
1	11167	1719	0
1	11178	1721	1
1	11178	1721	0
1	11218	1729	1
1	11218	1729	0
1	11236	1731	1
1	11236	1731	0
1	11243	1732	1
1	11245	1732	0
1	11259	1735	1
1	11259	1735	0
1	11266	1736	1
1	11268	1736	0
1	11340	1748	1
1	11340	1748	0
1	11428	1761	1
1	11428	1761	0
1	11449	1764	1
1	11449	1764	0
1	11470	1766	1
1	11477	1767	2
1	11478	1767	3
1	11486	1768	2
1	11497	1769	1
1	11507	1770	0
1	11532	1773	1
1	11532	1773	0
1	11566	1778	1
1	11566	1778	0
1	11593	1783	1
1	11593	1783	0
1	11612	1785	1
1	11612	1785	0
1	11656	1793	1
1	11656	1793	0
1	11691	1800	1
1	11691	1800	0
1	11732	1808	1
1	11732	1808	0
1	11766	1813	1
1	11766	1813	0
1	11789	1817	1
1	11789	1817	0
1	11855	1829	1
1	11855	1829	0
1	11893	1834	1
1	11893	1834	0
1	11903	1835	1
1	11906	1835	0
1	11925	1839	1
1	11925	1839	0
1	11930	1840	1
1	11931	1840	2
1	11937	1840	1
1	11944	1841	2
1	11952	1841	1
1	11964	1842	0
1	11992	1846	1
1	11992	1846	0
1	12114	1866	1
1	12114	1866	0
1	12138	1869	1
1	12138	1869	0
1	12166	1872	1
1	12166	1872	0
1	12175	1873	1
1	12177	1873	0
1	12186	1874	1
1	12188	1874	0
1	12211	1877	1
1	12211	1877	0
1	12222	1878	1
1	12223	1878	2
1	12226	1878	1
1	12235	1879	2
1	12236	1879	3
1	12238	1879	2
1	12247	1880	3
1	12249	1880	2
1	12259	1881	1
1	12281	1885	0
1	12288	1886	1
1	12291	1886	0
1	12314	1889	1
1	12314	1889	0
1	12400	1901	1
1	12400	1901	0
1	12411	1902	1
1	12413	1902	0
1	12433	1904	1
1	12433	1904	0
1	12434	1904	1
1	12445	1905	0
1	12478	1909	1
1	12478	1909	0
1	12532	1916	1
1	12532	1916	0
1	12550	1918	1
1	12550	1918	0
1	12601	1925	1
1	12601	1925	0
1	12612	1926	1
1	12613	1926	2
1	12616	1926	1
1	12626	1927	0
1	12650	1931	1
1	12650	1931	0
1	12678	1936	1
1	12678	1936	0
1	12679	1936	1
1	12687	1937	0
1	12692	1938	1
1	12695	1938	0
1	12710	1941	1
1	12710	1941	0
1	12724	1943	1
1	12724	1943	0
1	12729	1944	1
1	12730	1944	2
1	12732	1944	1
1	12738	1945	0
1	12774	1953	1
1	12774	1953	0
1	12826	1961	1
1	12826	1961	0
1	12869	1966	1
1	12869	1966	0
1	12886	1968	1
1	12886	1968	0
1	12916	1972	1
1	12916	1972	0
1	12960	1981	1
1	12960	1981	0
1	12978	1984	1
1	12978	1984	0
1	12996	1986	1
1	12996	1986	0
1	13063	2001	1
1	13063	2001	0
1	13084	2005	1
1	13084	2005	0
1	13096	2007	1
1	13096	2007	0
1	13125	2010	1
1	13125	2010	0
1	13179	2018	1
1	13179	2018	0
1	13359	2043	1
1	13359	2043	0
1	13412	2050	1
1	13412	2050	0
1	13413	2050	1
1	13424	2051	2
1	13426	2051	1
1	13435	2052	2
1	13440	2052	1
1	13449	2053	2
1	13451	2053	1
1	13461	2054	0
1	13479	2056	1
1	13479	2056	0
1	13490	2058	1
1	13490	2058	0
1	13506	2062	1
1	13506	2062	0
1	13542	2069	1
1	13542	2069	0
1	13599	2082	1
1	13599	2082	0
1	13629	2086	1
1	13629	2086	0
1	13630	2086	1
1	13640	2087	0
1	13673	2091	1
1	13673	2091	0
1	13709	2096	1
1	13709	2096	0
1	13778	2107	1
1	13778	2107	0
1	13843	2122	1
1	13843	2122	0
1	13866	2126	1
1	13866	2126	0
1	13885	2128	1
1	13885	2128	0
1	13894	2129	1
1	13896	2129	0
1	14056	2152	1
1	14056	2152	0
1	14057	2152	1
1	14064	2153	2
1	14066	2153	1
1	14074	2154	0
1	14081	2155	1
1	14085	2155	0
1	14102	2159	1
1	14102	2159	0
1	14198	2172	1
1	14198	2172	0
1	14230	2176	1
1	14230	2176	0
1	14341	2194	1
1	14341	2194	0
1	14404	2205	1
1	14404	2205	0
1	14415	2206	1
1	14417	2206	0
1	14426	2207	1
1	14428	2207	0
1	14460	2211	1
1	14460	2211	0
1	14477	2214	1
1	14477	2214	0
1	14662	2246	1
1	14662	2246	0
1	14671	2248	1
1	14671	2248	0
1	14683	2250	1
1	14683	2250	0
1	14684	2250	1
1	14692	2251	0
1	14706	2254	1
1	14706	2254	0
1	14769	2267	1
1	14769	2267	0
1	14820	2275	1
1	14820	2275	0
1	14838	2277	1
1	14838	2277	0
1	14863	2280	1
1	14863	2280	0
1	14870	2281	1
1	14871	2281	2
1	14873	2281	1
1	14879	2282	0
1	14899	2287	1
1	14899	2287	0
1	14916	2289	1
1	14916	2289	0
1	14941	2294	1
1	14941	2294	0
1	14948	2295	1
1	14950	2295	0
1	14955	2296	1
1	14957	2296	0
1	14962	2297	1
1	14964	2297	0
1	14969	2298	1
1	14971	2298	0
1	14989	2302	1
1	14989	2302	0
1	15009	2307	1
1	15009	2307	0
1	15026	2309	1
1	15026	2309	0
1	15114	2322	1
1	15114	2322	0
1	15136	2324	1
1	15136	2324	0
1	15218	2337	1
1	15218	2337	0
1	15236	2340	1
1	15236	2340	0
1	15277	2348	1
1	15277	2348	0
1	15328	2361	1
1	15328	2361	0
1	15329	2361	1
1	15340	2362	0
1	15390	2368	1
1	15390	2368	0
1	15437	2374	1
1	15437	2374	0
1	15455	2376	1
1	15455	2376	0
1	15465	2377	1
1	15471	2377	0
1	15495	2380	1
1	15495	2380	0
1	15519	2383	1
1	15519	2383	0
1	15545	2386	1
1	15545	2386	0
1	15576	2390	1
1	15576	2390	0
1	15602	2394	1
1	15602	2394	0
1	15616	2396	1
1	15616	2396	0
1	15632	2399	1
1	15632	2399	0
1	15633	2399	1
1	15644	2400	0
1	15688	2407	1
1	15688	2407	0
1	15689	2407	1
1	15697	2408	0
1	15709	2410	1
1	15709	2410	0
1	15733	2416	1
1	15733	2416	0
1	15757	2419	1
1	15757	2419	0
1	15767	2420	1
1	15772	2420	0
1	15883	2435	1
1	15883	2435	0
1	15920	2442	1
1	15920	2442	0
1	15946	2446	1
1	15946	2446	0
1	15965	2448	1
1	15965	2448	0
1	16002	2454	1
1	16002	2454	0
1	16037	2460	1
1	16037	2460	0
1	16038	2460	1
1	16047	2461	2
1	16049	2461	1
1	16072	2464	2
1	16078	2465	1
1	16087	2466	0
1	16160	2476	1
1	16160	2476	0
1	16170	2477	1
1	16174	2477	0
1	16228	2484	1
1	16228	2484	0
1	16272	2489	1
1	16272	2489	0
1	16307	2493	1
1	16307	2493	0
1	16435	2512	1
1	16435	2512	0
1	16444	2513	1
1	16447	2513	0
1	16481	2517	1
1	16481	2517	0
1	16535	2525	1
1	16535	2525	0
1	16589	2534	1
1	16589	2534	0
1	16598	2535	1
1	16600	2535	0
1	16611	2537	1
1	16611	2537	0
1	16620	2539	1
1	16620	2539	0
1	16638	2541	1
1	16638	2541	0
1	16677	2550	1
1	16677	2550	0
1	16686	2551	1
1	16688	2551	0
1	16717	2555	1
1	16717	2555	0
1	16750	2560	1
1	16750	2560	0
1	16775	2563	1
1	16775	2563	0
1	16793	2565	1
1	16793	2565	0
1	16827	2569	1
1	16827	2569	0
1	16850	2572	1
1	16850	2572	0
1	16899	2579	1
1	16899	2579	0
1	17008	2598	1
1	17008	2598	0
1	17035	2601	1
1	17035	2601	0
1	17094	2611	1
1	17094	2611	0
1	17104	2612	1
1	17106	2612	0
1	17139	2617	1
1	17139	2617	0
1	17184	2623	1
1	17184	2623	0
1	17202	2627	1
1	17202	2627	0
1	17219	2629	1
1	17219	2629	0
1	17265	2636	1
1	17265	2636	0
1	17274	2638	1
1	17274	2638	0
1	17310	2646	1
1	17310	2646	0
1	17358	2652	1
1	17358	2652	0
1	17403	2658	1
1	17403	2658	0
1	17418	2660	1
1	17418	2660	0
1	17461	2667	1
1	17461	2667	0
1	17471	2668	1
1	17474	2668	0
1	17514	2674	1
1	17514	2674	0
1	17548	2681	1
1	17548	2681	0
1	17571	2684	1
1	17571	2684	0
1	17580	2686	1
1	17580	2686	0
1	17607	2690	1
1	17607	2690	0
1	17633	2693	1
1	17633	2693	0
1	17666	2699	1
1	17666	2699	0
1	17690	2702	1
1	17690	2702	0
1	17706	2705	1
1	17706	2705	0
1	17717	2707	1
1	17717	2707	0
1	17735	2709	1
1	17735	2709	0
1	17736	2709	1
1	17746	2710	0
1	17835	2733	1
1	17835	2733	0
1	17874	2738	1
1	17874	2738	0
1	17915	2746	1
1	17915	2746	0
1	17961	2754	1
1	17961	2754	0
1	18000	2761	1
1	18000	2761	0
1	18047	2772	1
1	18047	2772	0
1	18066	2775	1
1	18066	2775	0
1	18093	2780	1
1	18093	2780	0
1	18103	2781	1
1	18106	2781	0
1	18115	2782	1
1	18117	2782	0
1	18132	2784	1
1	18132	2784	0
1	18144	2786	1
1	18144	2786	0
1	18151	2787	1
1	18153	2787	0
1	18187	2795	1
1	18187	2795	0
1	18260	2809	1
1	18260	2809	0
1	18276	2811	1
1	18276	2811	0
1	18277	2811	1
1	18283	2812	0
1	18326	2821	1
1	18326	2821	0
1	18360	2826	1
1	18360	2826	0
1	18416	2836	1
1	18416	2836	0
1	18444	2843	1
1	18444	2843	0
1	18542	2859	1
1	18542	2859	0
1	18547	2860	1
1	18549	2860	0
1	18568	2865	1
1	18568	2865	0
1	18605	2873	1
1	18605	2873	0
1	18655	2882	1
1	18655	2882	0
1	18664	2883	1
1	18669	2883	0
1	18699	2887	1
1	18699	2887	0
1	18716	2889	1
1	18716	2889	0