version 3
run Experimentos-681-20260508-20:06:11-31243
attr configname Experimentos
attr datetime 20260508-20:06:11
attr datetimef 20260508-200611
attr experiment Experimentos
attr inifile TwoQueues.ini
attr iterationvars "$p=0.7, $q=0.2, $Y=30, $m=4"
attr iterationvarsd p=0.7/q=0.2/Y=30/m=4
attr iterationvarsf p=0.7,q=0.2,Y=30,m=4-
attr measurement "$p=0.7, $q=0.2, $Y=30, $m=4"
attr network TwoQueues
attr processid 31243
attr repetition 1
attr replication #1
attr resultdir results
attr runnumber 681
attr seedset 681
itervar Y 30
itervar m 4
itervar p 0.7
itervar q 0.2
config description "Barrido completo de parámetros Proyecto 12"
config **.source1.p 0.7
config **.source1.q 0.2
config **.source2.p 0.6
config **.source2.q 0.2
config **.serverWithMaintenance.Y 30
config **.serverWithMaintenance.m 4
config network TwoQueues
config cpu-time-limit 5000s
config sim-time-limit 5000s
config warmup-period 400s
config repeat 20
config output-scalar-file results/Experimentos-p=0.7,q=0.2,Y=30,m=4--#1.sca
config output-vector-file results/Experimentos-p=0.7,q=0.2,Y=30,m=4--#1.vec
config **.vector-recording true

vector 0 TwoQueues.serverWithMaintenance residenceTime2:vector ETV
attr recordingmode vector
attr source delay2
attr title "Residence Time Class 2"
vector 1 TwoQueues.queue2 queueLengthStats:vector ETV
attr recordingmode vector
attr source qlen
attr title "Average Queue Length"
vector 2 TwoQueues.queue1 queueLengthStats:vector ETV
attr recordingmode vector
attr source qlen
attr title "Average Queue Length"
vector 3 TwoQueues.server residenceTime1:vector ETV
attr recordingmode vector
attr source delay1
attr title "Residence Time Class 1"
vector 4 TwoQueues.server throughputStats1:vector ETV
attr recordingmode vector
attr source throughput1
attr title "Throughput Class 1"
0	2158	404	4
0	2262	431	1
0	2293	439	1
0	2311	442	1
0	2363	450	1
0	2398	455	1
0	2407	456	2
0	2418	458	1
0	2428	459	1
0	2446	464	1
0	2479	471	1
0	2506	474	1
0	2516	475	2
0	2527	476	2
0	2537	477	2
0	2557	480	1
0	2576	482	1
0	2587	483	1
0	2596	484	2
0	2609	486	1
0	2621	488	1
0	2767	521	1
0	2783	524	1
0	2790	525	1
0	2811	529	1
0	2846	538	1
0	2868	544	1
0	2879	545	1
0	2894	547	1
0	2903	549	1
0	2936	554	5
0	2957	556	1
0	2967	557	2
0	3007	562	1
0	3017	563	1
0	3030	567	1
0	3037	568	1
0	3057	573	1
0	3080	581	1
0	3094	584	1
0	3101	585	1
0	3115	587	1
0	3132	589	1
0	3144	590	2
0	3155	591	2
0	3169	592	1
0	3179	593	2
0	3230	602	1
0	3243	604	1
0	3253	605	2
0	3287	612	1
0	3316	619	1
0	3360	627	1
0	3385	631	1
0	3399	634	1
0	3409	636	1
0	3418	637	2
0	3435	641	1
0	3467	647	1
0	3478	648	1
0	3495	653	6
0	3506	654	3
0	3517	655	3
0	3525	656	3
0	3531	657	4
0	3541	659	1
0	3550	660	2
0	3577	664	1
0	3607	670	1
0	3622	675	1
0	3633	678	1
0	3696	691	1
0	3719	696	1
0	3729	697	2
0	3749	700	1
0	3759	701	1
0	3780	704	1
0	3831	716	1
0	3847	720	1
0	3864	726	1
0	3953	748	1
0	3964	751	1
0	3973	753	1
0	3980	754	1
0	3987	755	1
0	4007	758	1
0	4018	759	1
0	4043	763	1
0	4055	765	1
0	4075	767	1
0	4160	786	1
0	4182	792	1
0	4206	795	1
0	4280	810	1
0	4328	820	1
0	4341	821	1
0	4351	822	2
0	4362	823	1
0	4375	826	1
0	4383	827	1
0	4389	828	2
0	4438	840	1
0	4483	849	1
0	4500	851	1
0	4528	860	1
0	4588	870	1
0	4595	871	1
0	4602	872	1
0	4636	879	1
0	4664	883	1
0	4675	884	1
0	4708	890	1
0	4727	893	1
0	4796	909	1
0	4803	910	1
0	4826	914	1
0	4850	921	1
0	4866	924	1
0	4875	926	1
0	4902	932	1
0	4918	937	4
0	4936	941	1
0	4952	944	1
0	5004	955	1
0	5037	962	1
0	5067	966	1
0	5074	967	2
0	5081	968	2
0	5091	969	2
0	5119	974	1
0	5144	980	1
0	5167	984	1
0	5189	989	1
0	5212	993	1
0	5270	1007	1
0	5288	1012	1
0	5301	1015	1
0	5313	1017	1
0	5333	1020	1
0	5367	1028	1
0	5382	1029	1
0	5392	1030	2
0	5440	1038	1
0	5498	1052	1
0	5508	1053	1
0	5517	1054	1
0	5551	1066	1
0	5564	1069	1
0	5618	1077	1
0	5654	1090	1
0	5670	1095	2
0	5717	1105	1
0	5728	1106	1
0	5739	1107	2
0	5820	1118	1
0	5844	1122	1
0	5909	1137	1
0	5949	1143	1
0	5960	1144	1
0	6012	1161	1
0	6034	1166	1
0	6108	1183	1
0	6118	1184	1
0	6154	1191	1
0	6166	1193	1
0	6173	1194	1
0	6184	1196	1
0	6214	1200	1
0	6242	1206	1
0	6249	1207	1
0	6262	1210	1
0	6332	1224	1
0	6352	1226	1
0	6370	1228	1
0	6382	1229	1
0	6406	1232	1
0	6436	1237	1
0	6448	1239	1
0	6461	1242	1
0	6473	1244	1
0	6490	1249	4
0	6496	1250	4
0	6552	1263	1
0	6559	1264	1
0	6595	1272	1
0	6608	1273	1
0	6630	1276	1
0	6644	1278	1
0	6656	1279	1
0	6671	1281	1
0	6697	1287	1
0	6703	1288	2
0	6709	1289	3
0	6766	1302	1
0	6772	1303	2
0	6793	1306	1
0	6818	1311	1
0	6847	1318	1
0	6886	1326	1
0	6980	1342	1
0	7005	1345	1
0	7022	1347	1
0	7050	1352	1
0	7061	1354	1
0	7088	1361	1
0	7112	1368	1
0	7135	1372	1
0	7157	1378	1
0	7179	1384	1
0	7190	1385	1
0	7228	1392	1
0	7260	1399	1
0	7267	1400	1
0	7314	1411	1
0	7321	1412	1
0	7328	1413	1
0	7366	1422	1
0	7377	1425	1
0	7390	1428	1
0	7408	1432	1
0	7467	1450	1
0	7481	1453	1
0	7497	1455	1
0	7529	1462	1
0	7585	1469	1
0	7643	1478	1
0	7650	1479	1
0	7683	1484	1
0	7746	1497	1
0	7777	1505	1
0	7784	1506	1
0	7797	1510	1
0	7824	1516	1
0	7859	1526	1
0	7869	1527	2
0	7881	1528	1
0	7892	1529	2
0	7906	1531	1
0	7918	1533	1
0	7927	1535	1
0	7955	1540	5
0	7969	1542	1
0	7979	1543	1
0	8004	1552	1
0	8014	1553	1
0	8046	1559	1
0	8055	1561	1
0	8062	1562	1
0	8098	1570	1
0	8108	1572	1
0	8118	1573	2
0	8143	1579	1
0	8153	1580	1
0	8211	1594	1
0	8341	1624	1
0	8371	1629	1
0	8391	1634	1
0	8412	1637	1
0	8419	1638	1
0	8429	1639	1
0	8440	1641	1
0	8451	1642	1
0	8494	1649	1
0	8549	1656	1
0	8560	1657	1
0	8571	1658	1
0	8583	1660	1
0	8705	1691	1
0	8733	1695	1
0	8799	1718	1
0	8887	1738	1
0	8897	1739	1
0	8907	1740	1
0	8931	1746	1
0	8947	1749	1
0	8957	1750	2
0	8966	1751	3
0	8979	1755	1
0	9002	1759	1
0	9009	1760	1
0	9023	1762	1
0	9062	1769	1
0	9104	1775	1
0	9115	1778	1
0	9164	1789	1
0	9181	1791	1
0	9244	1807	1
0	9254	1808	2
0	9271	1811	1
0	9347	1824	1
0	9446	1841	1
0	9461	1845	1
0	9661	1873	1
0	9685	1876	1
0	9707	1879	1
0	9735	1888	1
0	9773	1897	1
0	9798	1902	1
0	9811	1906	1
0	9823	1909	1
0	9847	1914	6
0	9887	1921	1
0	9923	1931	1
0	9929	1932	2
0	10029	1947	1
0	10040	1948	2
0	10087	1956	1
0	10108	1959	1
0	10115	1960	1
0	10122	1961	1
0	10133	1964	1
0	10140	1965	1
0	10177	1971	1
0	10207	1976	1
0	10233	1984	1
0	10251	1988	1
0	10270	1990	1
0	10281	1991	2
0	10291	1992	3
0	10303	1994	1
0	10332	1999	1
0	10365	2005	1
0	10374	2007	1
0	10386	2009	1
0	10426	2017	1
0	10469	2027	1
0	10516	2036	1
0	10533	2038	1
0	10549	2042	1
0	10585	2049	1
0	10610	2054	4
0	10620	2055	3
0	10632	2056	3
0	10643	2057	1
0	10670	2061	1
0	10682	2062	1
0	10722	2069	1
0	10731	2070	2
0	10738	2071	1
0	10785	2081	1
0	10815	2087	1
0	10852	2096	1
0	10864	2097	2
0	10876	2098	2
0	10889	2099	3
0	10931	2105	1
0	10938	2106	1
0	10945	2107	1
0	10956	2110	1
0	10963	2111	1
0	10979	2114	1
0	11007	2120	1
0	11013	2121	2
0	11022	2123	1
0	11031	2125	1
0	11042	2126	1
0	11050	2127	2
0	11057	2128	1
0	11095	2136	1
0	11114	2139	1
0	11150	2145	1
0	11159	2146	2
0	11169	2147	1
0	11178	2148	1
0	11194	2151	1
0	11220	2159	1
0	11234	2161	1
0	11258	2167	1
0	11270	2168	1
0	11331	2182	1
0	11353	2187	1
0	11367	2190	1
0	11393	2194	1
0	11404	2195	1
0	11425	2198	1
0	11439	2201	1
0	11476	2206	1
0	11497	2210	1
0	11515	2214	1
0	11575	2229	1
0	11586	2232	1
0	11614	2241	1
0	11621	2242	1
0	11675	2250	1
0	11704	2256	1
0	11721	2258	1
0	11757	2265	1
0	11771	2267	1
0	11825	2278	1
0	11886	2287	1
0	11933	2295	1
0	11974	2304	1
0	12060	2320	1
0	12072	2322	1
0	12102	2328	1
0	12159	2337	1
0	12171	2338	1
0	12181	2339	1
0	12210	2345	1
0	12223	2347	1
0	12232	2348	2
0	12250	2350	1
0	12292	2362	1
0	12300	2363	1
0	12306	2364	2
0	12315	2366	1
0	12376	2379	1
0	12415	2386	1
0	12483	2396	1
0	12526	2403	1
0	12578	2415	1
0	12596	2419	1
0	12609	2423	1
0	12626	2429	1
0	12633	2430	1
0	12661	2438	1
0	12673	2440	1
0	12682	2442	1
0	12723	2459	1
0	12752	2467	1
0	12782	2472	3
0	12793	2473	3
0	12802	2474	4
0	12882	2494	1
0	12933	2505	1
0	12986	2514	1
0	13014	2517	1
0	13032	2519	1
0	13042	2520	2
0	13068	2523	1
0	13095	2528	1
0	13160	2543	1
0	13167	2544	1
0	13178	2546	1
0	13194	2550	1
0	13209	2552	1
0	13215	2553	2
0	13229	2555	1
0	13253	2560	1
0	13264	2561	1
0	13275	2562	1
0	13339	2575	1
0	13356	2577	1
0	13374	2580	1
0	13387	2584	1
0	13407	2589	1
0	13414	2590	1
0	13439	2594	1
0	13466	2599	1
0	13548	2612	1
0	13571	2617	1
0	13588	2619	1
0	13598	2620	1
0	13616	2623	1
0	13627	2626	1
0	13648	2633	1
0	13660	2634	1
0	13686	2638	1
0	13717	2644	1
0	13728	2645	1
0	13740	2646	1
0	13780	2654	1
0	13792	2656	1
0	13815	2661	1
0	13837	2665	1
0	13894	2677	1
0	13928	2684	1
0	13945	2690	1
0	13989	2702	1
0	14005	2704	1
0	14059	2717	1
0	14080	2722	1
0	14086	2723	2
0	14097	2726	1
0	14108	2729	1
0	14128	2732	1
0	14139	2733	1
0	14155	2735	1
0	14166	2738	1
0	14194	2747	1
0	14212	2752	4
0	14219	2753	4
0	14229	2754	4
0	14237	2755	3
0	14243	2756	3
0	14252	2758	1
0	14311	2769	1
0	14346	2775	1
0	14353	2776	1
0	14393	2785	1
0	14420	2792	1
0	14469	2799	1
0	14489	2803	1
0	14507	2808	1
0	14514	2809	1
0	14528	2811	1
0	14548	2816	1
0	14558	2817	1
0	14600	2826	1
0	14610	2827	1
0	14624	2830	1
0	14686	2839	1
0	14732	2848	1
0	14739	2849	1
0	14774	2859	1
0	14781	2860	1
0	14802	2864	1
0	14813	2865	2
0	14825	2866	1
0	14849	2870	1
0	14889	2878	1
0	14895	2879	2
0	14902	2880	1
0	14909	2881	1
0	14917	2882	1
0	14923	2883	2
0	14957	2889	1
0	14971	2891	1
0	14981	2892	1
0	14991	2893	1
0	15003	2894	1
0	15014	2896	1
0	15023	2898	1
0	15038	2901	1
0	15049	2902	2
0	15086	2909	1
0	15092	2910	2
0	15117	2917	1
0	15124	2918	2
0	15134	2919	2
0	15145	2920	2
0	15185	2929	1
0	15207	2935	1
0	15232	2939	1
0	15244	2940	1
0	15268	2944	1
0	15286	2947	1
0	15293	2948	1
0	15302	2950	1
0	15374	2962	1
0	15433	2973	1
0	15450	2975	1
0	15460	2976	1
0	15502	2986	1
0	15569	3003	1
0	15578	3005	1
0	15607	3011	1
0	15707	3043	1
0	15723	3045	1
0	15737	3047	1
0	15771	3053	1
0	15792	3055	1
0	15849	3068	1
0	15861	3071	1
0	15867	3072	2
0	15907	3081	1
0	15972	3097	1
0	15979	3098	1
0	15993	3100	1
0	16099	3126	1
0	16109	3127	2
0	16145	3133	1
0	16151	3134	2
0	16165	3136	1
0	16172	3137	1
0	16182	3138	1
0	16213	3144	1
0	16268	3151	1
0	16277	3152	2
0	16307	3162	1
0	16348	3171	1
0	16360	3173	1
0	16386	3180	1
0	16443	3188	1
0	16479	3194	1
0	16510	3197	1
0	16520	3198	2
0	16561	3203	1
0	16571	3204	2
0	16590	3206	1
0	16600	3207	2
0	16610	3208	1
0	16630	3213	1
0	16657	3217	1
0	16683	3220	1
0	16727	3228	1
0	16744	3230	1
0	16760	3233	1
0	16776	3236	1
0	16787	3237	1
0	16827	3244	1
0	16876	3251	1
0	16937	3260	1
0	16948	3261	1
0	16961	3262	1
0	16973	3263	2
0	16982	3264	2
0	17018	3277	1
0	17043	3281	1
0	17059	3285	1
0	17085	3290	4
0	17092	3291	1
0	17147	3305	1
0	17194	3314	1
0	17200	3315	2
0	17253	3328	1
0	17278	3334	1
0	17285	3335	1
0	17303	3340	1
0	17335	3350	1
0	17356	3353	1
0	17380	3356	1
0	17431	3364	1
0	17441	3365	2
0	17447	3366	2
0	17459	3368	1
0	17481	3373	1
0	17494	3377	1
0	17503	3379	1
0	17512	3381	1
0	17523	3384	1
0	17547	3392	1
0	17565	3394	1
0	17603	3403	1
0	17645	3415	1
0	17664	3422	1
0	17674	3423	1
0	17683	3424	1
0	17715	3434	1
0	17736	3438	1
0	17769	3449	1
0	17780	3451	1
0	17797	3453	1
0	17830	3461	1
0	17840	3462	1
0	17907	3475	1
0	17918	3476	1
0	17941	3479	1
0	17963	3486	1
0	17977	3488	1
0	18003	3496	1
0	18089	3513	1
0	18101	3514	1
0	18146	3520	1
0	18283	3545	1
0	18295	3547	1
0	18321	3551	1
0	18330	3552	2
0	18414	3574	1
0	18421	3575	1
0	18484	3587	1
0	18508	3591	1
0	18521	3594	1
0	18538	3596	1
0	18547	3598	1
0	18558	3601	1
0	18569	3604	1
0	18594	3609	1
0	18601	3610	1
0	18608	3611	1
0	18642	3616	2
0	18660	3618	1
0	18700	3629	1
0	18707	3630	1
0	18717	3631	1
0	18737	3637	1
0	18743	3638	2
0	18752	3640	1
0	18809	3656	1
0	18834	3661	1
0	18850	3664	1
0	18894	3676	1
0	18945	3684	1
0	18963	3687	1
0	18998	3691	1
0	19018	3693	1
0	19036	3695	1
0	19072	3700	1
0	19081	3702	1
0	19105	3705	1
0	19125	3709	1
0	19134	3711	1
0	19145	3714	1
0	19164	3717	1
0	19175	3718	1
0	19187	3719	1
0	19197	3720	1
0	19213	3722	1
0	19225	3724	1
0	19250	3729	1
0	19284	3734	4
0	19297	3735	1
0	19309	3736	2
0	19319	3737	3
0	19329	3738	1
0	19336	3739	1
0	19352	3742	1
0	19367	3746	1
0	19379	3748	1
0	19398	3751	1
0	19407	3752	2
0	19448	3765	1
0	19464	3768	1
0	19471	3769	1
0	19491	3773	1
0	19511	3775	1
0	19555	3786	1
0	19568	3790	1
0	19599	3795	1
0	19610	3796	2
0	19621	3797	2
0	19629	3798	2
0	19640	3799	1
0	19648	3800	2
0	19672	3803	1
0	19698	3809	1
0	19732	3816	1
0	19752	3821	1
0	19766	3822	1
0	19804	3828	1
0	19826	3833	3
0	19832	3834	2
0	19876	3843	1
0	19882	3844	2
0	19893	3845	1
0	19910	3848	1
0	19917	3849	1
0	19935	3853	1
0	19951	3855	1
0	19967	3859	1
0	19980	3862	1
0	19998	3866	1
0	20165	3903	1
0	20174	3905	1
0	20225	3917	1
0	20281	3930	1
0	20327	3941	1
0	20333	3942	2
0	20344	3945	1
0	20363	3948	1
0	20372	3949	2
0	20411	3954	1
0	20431	3956	1
0	20493	3965	1
0	20561	3980	1
0	20572	3981	1
0	20578	3982	2
0	20614	3987	1
0	20627	3988	2
0	20637	3989	2
0	20676	3994	2
0	20717	3999	1
0	20731	4000	1
0	20743	4001	2
0	20754	4002	2
0	20764	4003	3
0	20776	4004	1
0	20802	4008	1
0	20808	4009	2
0	20819	4011	1
0	20842	4013	1
0	20853	4014	1
0	20871	4016	1
0	20883	4017	2
0	20894	4018	2
0	20942	4026	1
0	20958	4029	1
0	20976	4033	1
0	21015	4045	1
0	21056	4053	1
0	21150	4070	1
0	21225	4085	1
0	21240	4087	1
0	21249	4088	2
0	21302	4097	1
0	21311	4098	2
0	21321	4099	1
0	21345	4105	1
0	21356	4108	1
0	21380	4115	1
0	21407	4120	3
0	21416	4121	2
0	21552	4149	1
0	21563	4150	1
0	21575	4152	1
0	21593	4155	1
0	21607	4157	1
0	21633	4160	1
0	21647	4162	1
0	21667	4164	1
0	21717	4172	1
0	21729	4174	1
0	21738	4176	1
0	21747	4178	1
0	21758	4181	1
0	21765	4182	1
0	21781	4185	1
0	21805	4192	1
0	21856	4205	1
0	21863	4206	1
0	21870	4207	1
0	21881	4209	1
0	21901	4214	1
0	21914	4215	1
0	21923	4216	2
0	21996	4229	1
0	22006	4230	1
0	22045	4241	1
0	22062	4243	1
0	22100	4248	1
0	22171	4261	1
0	22185	4263	1
0	22204	4265	1
0	22228	4270	1
0	22234	4271	2
0	22259	4275	1
0	22295	4284	1
0	22320	4289	1
0	22333	4293	1
0	22389	4302	1
0	22398	4303	2
0	22450	4317	1
0	22461	4318	1
0	22492	4325	1
0	22542	4334	1
0	22562	4336	1
0	22573	4337	1
0	22594	4341	1
0	22609	4345	1
0	22623	4348	1
0	22630	4349	1
0	22637	4350	1
0	22659	4356	1
0	22689	4366	1
0	22745	4380	1
0	22799	4391	1
0	22808	4393	1
0	22817	4395	1
0	22827	4396	1
0	22836	4397	1
0	22914	4418	1
0	22973	4431	1
0	23024	4442	1
0	23041	4444	1
0	23070	4451	1
0	23077	4452	1
0	23120	4461	1
0	23169	4469	1
0	23217	4477	1
0	23352	4507	1
0	23363	4509	1
0	23375	4511	1
0	23388	4514	1
0	23449	4522	1
0	23472	4528	1
0	23483	4529	2
0	23550	4541	1
0	23578	4550	1
0	23598	4554	1
0	23621	4558	1
0	23647	4562	1
0	23677	4569	1
0	23684	4570	2
0	23690	4571	2
0	23717	4577	1
0	23733	4580	1
0	23744	4581	1
0	23755	4582	2
0	23764	4583	1
0	23831	4595	1
0	23856	4600	3
0	23870	4602	1
0	23880	4603	1
0	23902	4609	1
0	23927	4612	1
0	23960	4618	1
0	24022	4628	1
0	24078	4640	1
0	24088	4641	2
0	24100	4643	1
0	24107	4644	1
0	24151	4651	1
0	24162	4652	1
0	24209	4658	1
0	24238	4662	1
0	24267	4669	1
0	24278	4672	1
0	24309	4676	1
0	24345	4682	1
0	24363	4684	1
0	24373	4685	2
0	24394	4687	1
0	24430	4692	1
0	24442	4694	1
0	24471	4701	1
0	24498	4707	1
0	24514	4710	1
0	24528	4712	1
0	24590	4728	1
0	24608	4732	1
0	24632	4737	2
0	24660	4745	1
0	24683	4749	1
0	24762	4766	1
0	24773	4769	1
0	24780	4770	1
0	24790	4771	1
0	24799	4772	1
0	24812	4775	1
0	24822	4776	1
0	24919	4797	1
0	24941	4803	1
0	24950	4805	1
0	24975	4811	1
0	24997	4816	1
0	25058	4829	1
0	25071	4833	1
0	25111	4839	1
0	25131	4841	1
0	25142	4842	1
0	25195	4849	1
0	25245	4860	1
0	25327	4877	1
0	25336	4878	2
0	25374	4888	1
0	25511	4912	1
0	25551	4919	1
0	25578	4922	1
0	25589	4923	1
0	25614	4927	1
0	25645	4932	5
0	25663	4936	1
0	25677	4939	1
0	25686	4940	2
0	25711	4943	1
0	25739	4949	1
0	25746	4950	1
0	25773	4956	1
0	25790	4959	1
0	25796	4960	2
0	25835	4965	1
0	25847	4966	1
0	25858	4967	1
0	25869	4968	1
0	25883	4970	1
0	25911	4973	1
0	25942	4978	1
0	26009	4998	1
0	26021	5000	1
1	2136	400	1
1	2154	403	0
1	2258	430	1
1	2258	430	0
1	2289	438	1
1	2289	438	0
1	2304	441	1
1	2304	441	0
1	2356	449	1
1	2356	449	0
1	2391	454	1
1	2391	454	0
1	2392	454	1
1	2401	455	0
1	2412	457	1
1	2412	457	0
1	2420	458	1
1	2422	458	0
1	2439	463	1
1	2439	463	0
1	2472	470	1
1	2472	470	0
1	2498	473	1
1	2498	473	0
1	2499	473	1
1	2508	474	2
1	2510	474	1
1	2517	475	2
1	2521	475	1
1	2531	476	0
1	2550	479	1
1	2550	479	0
1	2569	481	1
1	2569	481	0
1	2578	482	1
1	2579	482	2
1	2581	482	1
1	2590	483	0
1	2603	485	1
1	2603	485	0
1	2617	487	1
1	2617	487	0
1	2763	520	1
1	2763	520	0
1	2777	523	1
1	2777	523	0
1	2784	524	1
1	2786	524	0
1	2803	528	1
1	2803	528	0
1	2842	537	1
1	2842	537	0
1	2864	543	1
1	2864	543	0
1	2869	544	1
1	2873	544	0
1	2888	546	1
1	2888	546	0
1	2899	548	1
1	2899	548	0
1	2904	549	1
1	2928	553	0
1	2948	555	1
1	2948	555	0
1	2949	555	1
1	2960	556	0
1	2999	561	1
1	2999	561	0
1	3009	562	1
1	3011	562	0
1	3026	566	1
1	3026	566	0
1	3031	567	1
1	3033	567	0
1	3053	572	1
1	3053	572	0
1	3074	580	1
1	3074	580	0
1	3090	583	1
1	3090	583	0
1	3095	584	1
1	3097	584	0
1	3109	586	1
1	3109	586	0
1	3123	588	1
1	3123	588	0
1	3124	588	1
1	3134	589	2
1	3137	589	1
1	3148	590	0
1	3157	591	1
1	3158	591	2
1	3162	591	1
1	3172	592	0
1	3226	601	1
1	3226	601	0
1	3235	603	1
1	3235	603	0
1	3236	603	1
1	3246	604	0
1	3279	611	1
1	3279	611	0
1	3310	618	1
1	3310	618	0
1	3354	626	1
1	3354	626	0
1	3378	630	1
1	3378	630	0
1	3395	633	1
1	3395	633	0
1	3404	635	1
1	3404	635	0
1	3405	635	1
1	3412	636	0
1	3429	640	1
1	3429	640	0
1	3461	646	1
1	3461	646	0
1	3469	647	1
1	3470	647	2
1	3472	647	1
1	3486	651	2
1	3490	652	1
1	3491	652	2
1	3496	653	3
1	3497	653	4
1	3500	653	3
1	3511	654	2
1	3521	655	1
1	3527	656	0
1	3536	658	1
1	3536	658	0
1	3537	658	1
1	3544	659	0
1	3569	663	1
1	3569	663	0
1	3603	669	1
1	3603	669	0
1	3618	674	1
1	3618	674	0
1	3629	677	1
1	3629	677	0
1	3689	690	1
1	3689	690	0
1	3710	695	1
1	3710	695	0
1	3711	695	1
1	3722	696	0
1	3743	699	1
1	3743	699	0
1	3751	700	1
1	3753	700	0
1	3774	703	1
1	3774	703	0
1	3824	715	1
1	3824	715	0
1	3843	719	1
1	3843	719	0
1	3860	725	1
1	3860	725	0
1	3949	747	1
1	3949	747	0
1	3960	750	1
1	3960	750	0
1	3969	752	1
1	3969	752	0
1	3974	753	1
1	3976	753	0
1	3981	754	1
1	3983	754	0
1	4000	757	1
1	4000	757	0
1	4009	758	1
1	4011	758	0
1	4037	762	1
1	4037	762	0
1	4048	764	1
1	4048	764	0
1	4065	766	1
1	4065	766	0
1	4154	785	1
1	4154	785	0
1	4178	791	1
1	4178	791	0
1	4199	794	1
1	4199	794	0
1	4274	809	1
1	4274	809	0
1	4322	819	1
1	4322	819	0
1	4329	820	1
1	4330	820	2
1	4335	820	1
1	4345	821	0
1	4352	822	1
1	4356	822	0
1	4371	825	1
1	4371	825	0
1	4376	826	1
1	4377	826	2
1	4379	826	1
1	4385	827	0
1	4434	839	1
1	4434	839	0
1	4477	848	1
1	4477	848	0
1	4494	850	1
1	4494	850	0
1	4524	859	1
1	4524	859	0
1	4582	869	1
1	4582	869	0
1	4589	870	1
1	4591	870	0
1	4596	871	1
1	4598	871	0
1	4627	878	1
1	4627	878	0
1	4658	882	1
1	4658	882	0
1	4665	883	1
1	4669	883	0
1	4704	889	1
1	4704	889	0
1	4720	892	1
1	4720	892	0
1	4792	908	1
1	4792	908	0
1	4797	909	1
1	4799	909	0
1	4822	913	1
1	4822	913	0
1	4846	920	1
1	4846	920	0
1	4860	923	1
1	4860	923	0
1	4871	925	1
1	4871	925	0
1	4898	931	1
1	4898	931	0
1	4906	933	1
1	4914	936	0
1	4932	940	1
1	4932	940	0
1	4946	943	1
1	4946	943	0
1	5000	954	1
1	5000	954	0
1	5029	961	1
1	5029	961	0
1	5060	965	1
1	5060	965	0
1	5061	965	1
1	5068	966	2
1	5070	966	1
1	5075	967	2
1	5077	967	1
1	5085	968	0
1	5113	973	1
1	5113	973	0
1	5140	979	1
1	5140	979	0
1	5163	983	1
1	5163	983	0
1	5182	988	1
1	5182	988	0
1	5204	992	1
1	5204	992	0
1	5262	1006	1
1	5262	1006	0
1	5284	1011	1
1	5284	1011	0
1	5295	1014	1
1	5295	1014	0
1	5309	1016	1
1	5309	1016	0
1	5324	1019	1
1	5324	1019	0
1	5361	1027	1
1	5361	1027	0
1	5369	1028	1
1	5370	1028	2
1	5375	1028	1
1	5385	1029	0
1	5436	1037	1
1	5436	1037	0
1	5494	1051	1
1	5494	1051	0
1	5499	1052	1
1	5502	1052	0
1	5509	1053	1
1	5513	1053	0
1	5547	1065	1
1	5547	1065	0
1	5558	1068	1
1	5558	1068	0
1	5614	1076	1
1	5614	1076	0
1	5650	1089	1
1	5650	1089	0
1	5662	1093	1
1	5666	1094	0
1	5711	1104	1
1	5711	1104	0
1	5719	1105	1
1	5720	1105	2
1	5722	1105	1
1	5733	1106	0
1	5810	1117	1
1	5810	1117	0
1	5840	1121	1
1	5840	1121	0
1	5905	1136	1
1	5905	1136	0
1	5940	1142	1
1	5940	1142	0
1	5951	1143	1
1	5953	1143	0
1	6006	1160	1
1	6006	1160	0
1	6027	1165	1
1	6027	1165	0
1	6100	1182	1
1	6100	1182	0
1	6110	1183	1
1	6112	1183	0
1	6147	1190	1
1	6147	1190	0
1	6162	1192	1
1	6162	1192	0
1	6167	1193	1
1	6169	1193	0
1	6178	1195	1
1	6178	1195	0
1	6204	1199	1
1	6204	1199	0
1	6238	1205	1
1	6238	1205	0
1	6243	1206	1
1	6245	1206	0
1	6256	1209	1
1	6256	1209	0
1	6324	1223	1
1	6324	1223	0
1	6345	1225	1
1	6345	1225	0
1	6362	1227	1
1	6362	1227	0
1	6372	1228	1
1	6375	1228	0
1	6399	1231	1
1	6399	1231	0
1	6430	1236	1
1	6430	1236	0
1	6444	1238	1
1	6444	1238	0
1	6455	1241	1
1	6455	1241	0
1	6469	1243	1
1	6469	1243	0
1	6477	1245	1
1	6480	1246	2
1	6486	1248	1
1	6492	1249	0
1	6548	1262	1
1	6548	1262	0
1	6553	1263	1
1	6555	1263	0
1	6591	1271	1
1	6591	1271	0
1	6596	1272	1
1	6602	1272	0
1	6623	1275	1
1	6623	1275	0
1	6638	1277	1
1	6638	1277	0
1	6646	1278	1
1	6649	1278	0
1	6664	1280	1
1	6664	1280	0
1	6691	1286	1
1	6691	1286	0
1	6692	1286	1
1	6693	1286	2
1	6699	1287	1
1	6705	1288	0
1	6759	1301	1
1	6759	1301	0
1	6760	1301	1
1	6768	1302	0
1	6787	1305	1
1	6787	1305	0
1	6814	1310	1
1	6814	1310	0
1	6841	1317	1
1	6841	1317	0
1	6879	1325	1
1	6879	1325	0
1	6973	1341	1
1	6973	1341	0
1	6997	1344	1
1	6997	1344	0
1	7015	1346	1
1	7015	1346	0
1	7044	1351	1
1	7044	1351	0
1	7055	1353	1
1	7055	1353	0
1	7084	1360	1
1	7084	1360	0
1	7106	1367	1
1	7106	1367	0
1	7129	1371	1
1	7129	1371	0
1	7153	1377	1
1	7153	1377	0
1	7175	1383	1
1	7175	1383	0
1	7180	1384	1
1	7184	1384	0
1	7221	1391	1
1	7221	1391	0
1	7256	1398	1
1	7256	1398	0
1	7261	1399	1
1	7263	1399	0
1	7310	1410	1
1	7310	1410	0
1	7315	1411	1
1	7317	1411	0
1	7322	1412	1
1	7324	1412	0
1	7362	1421	1
1	7362	1421	0
1	7373	1424	1
1	7373	1424	0
1	7384	1427	1
1	7384	1427	0
1	7402	1431	1
1	7402	1431	0
1	7461	1449	1
1	7461	1449	0
1	7474	1452	1
1	7474	1452	0
1	7491	1454	1
1	7491	1454	0
1	7522	1461	1
1	7522	1461	0
1	7578	1468	1
1	7578	1468	0
1	7639	1477	1
1	7639	1477	0
1	7644	1478	1
1	7646	1478	0
1	7675	1483	1
1	7675	1483	0
1	7740	1496	1
1	7740	1496	0
1	7771	1504	1
1	7771	1504	0
1	7778	1505	1
1	7780	1505	0
1	7793	1509	1
1	7793	1509	0
1	7818	1515	1
1	7818	1515	0
1	7850	1525	1
1	7850	1525	0
1	7851	1525	1
1	7862	1526	0
1	7871	1527	1
1	7872	1527	2
1	7874	1527	1
1	7885	1528	0
1	7900	1530	1
1	7900	1530	0
1	7914	1532	1
1	7914	1532	0
1	7923	1534	1
1	7923	1534	0
1	7928	1535	1
1	7947	1539	0
1	7963	1541	1
1	7963	1541	0
1	7971	1542	1
1	7973	1542	0
1	7998	1551	1
1	7998	1551	0
1	8006	1552	1
1	8008	1552	0
1	8042	1558	1
1	8042	1558	0
1	8051	1560	1
1	8051	1560	0
1	8056	1561	1
1	8058	1561	0
1	8094	1569	1
1	8094	1569	0
1	8103	1571	1
1	8103	1571	0
1	8104	1571	1
1	8112	1572	0
1	8137	1578	1
1	8137	1578	0
1	8145	1579	1
1	8147	1579	0
1	8205	1593	1
1	8205	1593	0
1	8337	1623	1
1	8337	1623	0
1	8365	1628	1
1	8365	1628	0
1	8387	1633	1
1	8387	1633	0
1	8406	1636	1
1	8406	1636	0
1	8413	1637	1
1	8415	1637	0
1	8420	1638	1
1	8423	1638	0
1	8436	1640	1
1	8436	1640	0
1	8441	1641	1
1	8445	1641	0
1	8486	1648	1
1	8486	1648	0
1	8541	1655	1
1	8541	1655	0
1	8551	1656	1
1	8553	1656	0
1	8562	1657	1
1	8564	1657	0
1	8579	1659	1
1	8579	1659	0
1	8701	1690	1
1	8701	1690	0
1	8727	1694	1
1	8727	1694	0
1	8795	1717	1
1	8795	1717	0
1	8880	1737	1
1	8880	1737	0
1	8889	1738	1
1	8891	1738	0
1	8898	1739	1
1	8901	1739	0
1	8927	1745	1
1	8927	1745	0
1	8938	1748	1
1	8938	1748	0
1	8939	1748	1
1	8940	1748	2
1	8950	1749	1
1	8960	1750	0
1	8975	1754	1
1	8975	1754	0
1	8996	1758	1
1	8996	1758	0
1	9003	1759	1
1	9005	1759	0
1	9017	1761	1
1	9017	1761	0
1	9053	1768	1
1	9053	1768	0
1	9098	1774	1
1	9098	1774	0
1	9111	1777	1
1	9111	1777	0
1	9157	1788	1
1	9157	1788	0
1	9175	1790	1
1	9175	1790	0
1	9237	1806	1
1	9237	1806	0
1	9238	1806	1
1	9248	1807	0
1	9267	1810	1
1	9267	1810	0
1	9341	1823	1
1	9341	1823	0
1	9440	1840	1
1	9440	1840	0
1	9455	1844	1
1	9455	1844	0
1	9654	1872	1
1	9654	1872	0
1	9678	1875	1
1	9678	1875	0
1	9701	1878	1
1	9701	1878	0
1	9731	1887	1
1	9731	1887	0
1	9769	1896	1
1	9769	1896	0
1	9792	1901	1
1	9792	1901	0
1	9807	1905	1
1	9807	1905	0
1	9818	1908	1
1	9818	1908	0
1	9819	1908	1
1	9839	1913	0
1	9883	1920	1
1	9883	1920	0
1	9918	1930	1
1	9918	1930	0
1	9919	1930	1
1	9925	1931	0
1	10021	1946	1
1	10021	1946	0
1	10022	1946	1
1	10033	1947	0
1	10083	1955	1
1	10083	1955	0
1	10102	1958	1
1	10102	1958	0
1	10109	1959	1
1	10111	1959	0
1	10116	1960	1
1	10118	1960	0
1	10129	1963	1
1	10129	1963	0
1	10134	1964	1
1	10136	1964	0
1	10171	1970	1
1	10171	1970	0
1	10201	1975	1
1	10201	1975	0
1	10229	1983	1
1	10229	1983	0
1	10247	1987	1
1	10247	1987	0
1	10261	1989	1
1	10261	1989	0
1	10262	1989	1
1	10263	1989	2
1	10274	1990	1
1	10284	1991	0
1	10299	1993	1
1	10299	1993	0
1	10322	1998	1
1	10322	1998	0
1	10359	2004	1
1	10359	2004	0
1	10370	2006	1
1	10370	2006	0
1	10379	2008	1
1	10379	2008	0
1	10420	2016	1
1	10420	2016	0
1	10463	2026	1
1	10463	2026	0
1	10506	2035	1
1	10506	2035	0
1	10526	2037	1
1	10526	2037	0
1	10545	2041	1
1	10545	2041	0
1	10579	2048	1
1	10579	2048	0
1	10592	2050	1
1	10597	2052	2
1	10601	2053	1
1	10602	2053	2
1	10613	2054	1
1	10625	2055	0
1	10634	2056	1
1	10636	2056	0
1	10664	2060	1
1	10664	2060	0
1	10672	2061	1
1	10675	2061	0
1	10715	2068	1
1	10715	2068	0
1	10716	2068	1
1	10725	2069	0
1	10732	2070	1
1	10734	2070	0
1	10778	2080	1
1	10778	2080	0
1	10809	2086	1
1	10809	2086	0
1	10844	2095	1
1	10844	2095	0
1	10845	2095	1
1	10854	2096	2
1	10855	2096	3
1	10857	2096	2
1	10869	2097	1
1	10882	2098	0
1	10925	2104	1
1	10925	2104	0
1	10932	2105	1
1	10934	2105	0
1	10939	2106	1
1	10941	2106	0
1	10952	2109	1
1	10952	2109	0
1	10957	2110	1
1	10959	2110	0
1	10975	2113	1
1	10975	2113	0
1	11002	2119	1
1	11002	2119	0
1	11003	2119	1
1	11009	2120	0
1	11018	2122	1
1	11018	2122	0
1	11027	2124	1
1	11027	2124	0
1	11032	2125	1
1	11033	2125	2
1	11036	2125	1
1	11046	2126	0
1	11051	2127	1
1	11053	2127	0
1	11089	2135	1
1	11089	2135	0
1	11110	2138	1
1	11110	2138	0
1	11142	2144	1
1	11142	2144	0
1	11143	2144	1
1	11153	2145	0
1	11160	2146	1
1	11163	2146	0
1	11170	2147	1
1	11174	2147	0
1	11190	2150	1
1	11190	2150	0
1	11216	2158	1
1	11216	2158	0
1	11228	2160	1
1	11228	2160	0
1	11252	2166	1
1	11252	2166	0
1	11260	2167	1
1	11263	2167	0
1	11325	2181	1
1	11325	2181	0
1	11347	2186	1
1	11347	2186	0
1	11363	2189	1
1	11363	2189	0
1	11384	2193	1
1	11384	2193	0
1	11395	2194	1
1	11397	2194	0
1	11419	2197	1
1	11419	2197	0
1	11435	2200	1
1	11435	2200	0
1	11468	2205	1
1	11468	2205	0
1	11493	2209	1
1	11493	2209	0
1	11509	2213	1
1	11509	2213	0
1	11569	2228	1
1	11569	2228	0
1	11582	2231	1
1	11582	2231	0
1	11610	2240	1
1	11610	2240	0
1	11615	2241	1
1	11617	2241	0
1	11668	2249	1
1	11668	2249	0
1	11700	2255	1
1	11700	2255	0
1	11712	2257	1
1	11712	2257	0
1	11753	2264	1
1	11753	2264	0
1	11765	2266	1
1	11765	2266	0
1	11819	2277	1
1	11819	2277	0
1	11880	2286	1
1	11880	2286	0
1	11926	2294	1
1	11926	2294	0
1	11967	2303	1
1	11967	2303	0
1	12054	2319	1
1	12054	2319	0
1	12068	2321	1
1	12068	2321	0
1	12093	2327	1
1	12093	2327	0
1	12153	2336	1
1	12153	2336	0
1	12161	2337	1
1	12164	2337	0
1	12173	2338	1
1	12175	2338	0
1	12203	2344	1
1	12203	2344	0
1	12218	2346	1
1	12218	2346	0
1	12219	2346	1
1	12226	2347	0
1	12243	2349	1
1	12243	2349	0
1	12286	2361	1
1	12286	2361	0
1	12293	2362	1
1	12294	2362	2
1	12296	2362	1
1	12302	2363	0
1	12311	2365	1
1	12311	2365	0
1	12372	2378	1
1	12372	2378	0
1	12411	2385	1
1	12411	2385	0
1	12474	2395	1
1	12474	2395	0
1	12520	2402	1
1	12520	2402	0
1	12572	2414	1
1	12572	2414	0
1	12592	2418	1
1	12592	2418	0
1	12605	2422	1
1	12605	2422	0
1	12622	2428	1
1	12622	2428	0
1	12627	2429	1
1	12629	2429	0
1	12655	2437	1
1	12655	2437	0
1	12669	2439	1
1	12669	2439	0
1	12678	2441	1
1	12678	2441	0
1	12717	2458	1
1	12717	2458	0
1	12748	2466	1
1	12748	2466	0
1	12758	2469	1
1	12765	2470	2
1	12766	2470	3
1	12775	2471	2
1	12786	2472	1
1	12796	2473	0
1	12878	2493	1
1	12878	2493	0
1	12925	2504	1
1	12925	2504	0
1	12978	2513	1
1	12978	2513	0
1	13007	2516	1
1	13007	2516	0
1	13024	2518	1
1	13024	2518	0
1	13025	2518	1
1	13035	2519	0
1	13061	2522	1
1	13061	2522	0
1	13091	2527	1
1	13091	2527	0
1	13154	2542	1
1	13154	2542	0
1	13161	2543	1
1	13163	2543	0
1	13172	2545	1
1	13172	2545	0
1	13190	2549	1
1	13190	2549	0
1	13202	2551	1
1	13202	2551	0
1	13203	2551	1
1	13211	2552	0
1	13223	2554	1
1	13223	2554	0
1	13245	2559	1
1	13245	2559	0
1	13255	2560	1
1	13257	2560	0
1	13266	2561	1
1	13268	2561	0
1	13330	2574	1
1	13330	2574	0
1	13349	2576	1
1	13349	2576	0
1	13370	2579	1
1	13370	2579	0
1	13383	2583	1
1	13383	2583	0
1	13403	2588	1
1	13403	2588	0
1	13408	2589	1
1	13410	2589	0
1	13432	2593	1
1	13432	2593	0
1	13458	2598	1
1	13458	2598	0
1	13542	2611	1
1	13542	2611	0
1	13564	2616	1
1	13564	2616	0
1	13582	2618	1
1	13582	2618	0
1	13589	2619	1
1	13592	2619	0
1	13612	2622	1
1	13612	2622	0
1	13623	2625	1
1	13623	2625	0
1	13642	2632	1
1	13642	2632	0
1	13650	2633	1
1	13653	2633	0
1	13680	2637	1
1	13680	2637	0
1	13707	2643	1
1	13707	2643	0
1	13719	2644	1
1	13721	2644	0
1	13730	2645	1
1	13733	2645	0
1	13773	2653	1
1	13773	2653	0
1	13788	2655	1
1	13788	2655	0
1	13808	2660	1
1	13808	2660	0
1	13831	2664	1
1	13831	2664	0
1	13890	2676	1
1	13890	2676	0
1	13922	2683	1
1	13922	2683	0
1	13941	2689	1
1	13941	2689	0
1	13983	2701	1
1	13983	2701	0
1	13998	2703	1
1	13998	2703	0
1	14055	2716	1
1	14055	2716	0
1	14075	2721	1
1	14075	2721	0
1	14076	2721	1
1	14082	2722	0
1	14093	2725	1
1	14093	2725	0
1	14104	2728	1
1	14104	2728	0
1	14118	2731	1
1	14118	2731	0
1	14130	2732	1
1	14132	2732	0
1	14149	2734	1
1	14149	2734	0
1	14162	2737	1
1	14162	2737	0
1	14190	2746	1
1	14190	2746	0
1	14198	2748	1
1	14201	2749	2
1	14204	2750	3
1	14208	2751	2
1	14213	2752	3
1	14215	2752	2
1	14220	2753	3
1	14223	2753	2
1	14233	2754	1
1	14239	2755	0
1	14248	2757	1
1	14248	2757	0
1	14304	2768	1
1	14304	2768	0
1	14342	2774	1
1	14342	2774	0
1	14347	2775	1
1	14349	2775	0
1	14385	2784	1
1	14385	2784	0
1	14416	2791	1
1	14416	2791	0
1	14463	2798	1
1	14463	2798	0
1	14483	2802	1
1	14483	2802	0
1	14503	2807	1
1	14503	2807	0
1	14508	2808	1
1	14510	2808	0
1	14522	2810	1
1	14522	2810	0
1	14542	2815	1
1	14542	2815	0
1	14549	2816	1
1	14552	2816	0
1	14594	2825	1
1	14594	2825	0
1	14602	2826	1
1	14604	2826	0
1	14617	2829	1
1	14617	2829	0
1	14678	2838	1
1	14678	2838	0
1	14726	2847	1
1	14726	2847	0
1	14733	2848	1
1	14735	2848	0
1	14768	2858	1
1	14768	2858	0
1	14775	2859	1
1	14777	2859	0
1	14795	2863	1
1	14795	2863	0
1	14796	2863	1
1	14806	2864	0
1	14815	2865	1
1	14818	2865	0