version 3
run Experimentos-711-20260508-20:06:12-31393
attr configname Experimentos
attr datetime 20260508-20:06:12
attr datetimef 20260508-200612
attr experiment Experimentos
attr inifile TwoQueues.ini
attr iterationvars "$p=0.7, $q=0.2, $Y=30, $m=5"
attr iterationvarsd p=0.7/q=0.2/Y=30/m=5
attr iterationvarsf p=0.7,q=0.2,Y=30,m=5-
attr measurement "$p=0.7, $q=0.2, $Y=30, $m=5"
attr network TwoQueues
attr processid 31393
attr repetition 11
attr replication #11
attr resultdir results
attr runnumber 711
attr seedset 711
itervar Y 30
itervar m 5
itervar p 0.7
itervar q 0.2
config description "Barrido completo de parámetros Proyecto 12"
config **.source1.p 0.7
config **.source1.q 0.2
config **.source2.p 0.6
config **.source2.q 0.2
config **.serverWithMaintenance.Y 30
config **.serverWithMaintenance.m 5
config network TwoQueues
config cpu-time-limit 5000s
config sim-time-limit 5000s
config warmup-period 400s
config repeat 20
config output-scalar-file results/Experimentos-p=0.7,q=0.2,Y=30,m=5--#11.sca
config output-vector-file results/Experimentos-p=0.7,q=0.2,Y=30,m=5--#11.vec
config **.vector-recording true

vector 0 TwoQueues.serverWithMaintenance residenceTime2:vector ETV
attr recordingmode vector
attr source delay2
attr title "Residence Time Class 2"
vector 1 TwoQueues.queue2 queueLengthStats:vector ETV
attr recordingmode vector
attr source qlen
attr title "Average Queue Length"
vector 2 TwoQueues.queue1 queueLengthStats:vector ETV
attr recordingmode vector
attr source qlen
attr title "Average Queue Length"
vector 3 TwoQueues.server residenceTime1:vector ETV
attr recordingmode vector
attr source delay1
attr title "Residence Time Class 1"
vector 4 TwoQueues.server throughputStats1:vector ETV
attr recordingmode vector
attr source throughput1
attr title "Throughput Class 1"
0	2011	400	1
0	2030	403	1
0	2043	407	1
0	2069	414	1
0	2093	419	1
0	2099	420	2
0	2118	423	1
0	2150	429	7
0	2156	430	3
0	2165	431	4
0	2176	433	1
0	2201	437	1
0	2251	445	1
0	2257	446	2
0	2274	448	1
0	2340	460	1
0	2412	476	1
0	2425	480	1
0	2434	482	1
0	2452	486	1
0	2459	487	1
0	2475	490	1
0	2492	496	1
0	2564	509	1
0	2570	510	2
0	2581	513	1
0	2601	518	1
0	2639	525	1
0	2667	530	1
0	2687	535	1
0	2712	541	1
0	2749	547	1
0	2853	565	1
0	2880	570	1
0	2897	572	1
0	2906	573	2
0	2917	575	1
0	2964	581	6
0	2970	582	3
0	2977	583	1
0	3007	588	1
0	3014	589	1
0	3040	593	1
0	3049	594	2
0	3073	601	1
0	3084	604	1
0	3100	607	1
0	3156	620	1
0	3163	621	1
0	3192	627	1
0	3225	632	1
0	3252	638	1
0	3294	646	1
0	3304	647	2
0	3330	650	1
0	3366	655	1
0	3377	658	1
0	3388	660	1
0	3398	661	1
0	3463	677	1
0	3502	683	1
0	3516	685	1
0	3540	691	1
0	3554	693	1
0	3566	695	1
0	3716	724	1
0	3732	727	1
0	3753	733	6
0	3770	739	1
0	3832	749	1
0	3842	750	1
0	3906	760	1
0	3947	767	1
0	3956	768	2
0	3976	771	1
0	3987	772	1
0	3994	773	2
0	4000	774	2
0	4010	776	1
0	4016	777	2
0	4025	779	1
0	4032	780	1
0	4048	782	1
0	4083	788	1
0	4133	799	1
0	4168	805	1
0	4175	806	2
0	4185	807	2
0	4202	809	1
0	4240	819	1
0	4285	829	1
0	4299	832	1
0	4312	833	1
0	4342	838	1
0	4353	839	1
0	4432	850	1
0	4443	851	1
0	4475	857	2
0	4484	858	2
0	4545	871	1
0	4576	876	1
0	4582	877	2
0	4589	878	1
0	4599	879	1
0	4656	889	1
0	4663	890	1
0	4670	891	1
0	4691	899	1
0	4698	900	1
0	4707	902	1
0	4741	911	1
0	4747	912	2
0	4780	920	1
0	4792	922	1
0	4876	945	1
0	4885	946	2
0	4932	953	1
0	4997	967	1
0	5006	969	1
0	5018	971	1
0	5038	975	1
0	5159	999	1
0	5177	1001	1
0	5196	1004	1
0	5235	1015	1
0	5247	1017	1
0	5296	1029	1
0	5327	1035	5
0	5338	1036	3
0	5348	1037	1
0	5355	1038	1
0	5380	1042	1
0	5411	1050	1
0	5456	1061	1
0	5470	1063	1
0	5477	1064	1
0	5489	1067	1
0	5496	1068	2
0	5502	1069	2
0	5527	1074	1
0	5538	1076	1
0	5554	1079	1
0	5584	1084	1
0	5594	1085	1
0	5605	1088	1
0	5624	1091	1
0	5636	1092	2
0	5645	1093	2
0	5663	1097	1
0	5679	1100	1
0	5832	1125	1
0	5865	1129	1
0	5883	1131	1
0	5904	1135	1
0	5921	1141	1
0	5939	1145	1
0	5973	1152	1
0	6001	1158	2
0	6031	1163	1
0	6056	1173	1
0	6070	1176	1
0	6088	1178	1
0	6100	1179	1
0	6124	1183	1
0	6178	1192	1
0	6202	1195	1
0	6214	1197	1
0	6232	1200	1
0	6242	1201	1
0	6261	1204	1
0	6270	1205	2
0	6321	1215	1
0	6327	1216	2
0	6337	1217	1
0	6384	1223	1
0	6408	1229	1
0	6415	1230	1
0	6428	1234	1
0	6444	1237	1
0	6468	1240	1
0	6479	1241	1
0	6533	1249	1
0	6551	1253	1
0	6595	1260	1
0	6602	1261	1
0	6626	1267	1
0	6646	1272	1
0	6680	1278	3
0	6689	1279	2
0	6710	1282	1
0	6807	1303	1
0	6814	1304	1
0	6832	1308	1
0	6862	1318	1
0	6881	1321	1
0	6973	1337	1
0	7017	1343	1
0	7027	1344	1
0	7066	1355	1
0	7089	1359	1
0	7142	1366	1
0	7153	1367	2
0	7163	1368	3
0	7169	1369	2
0	7215	1383	1
0	7224	1384	2
0	7282	1393	1
0	7294	1395	1
0	7350	1404	1
0	7359	1405	2
0	7372	1406	1
0	7390	1408	1
0	7439	1415	1
0	7448	1416	2
0	7502	1428	1
0	7533	1436	1
0	7603	1456	1
0	7642	1462	6
0	7648	1463	6
0	7699	1481	1
0	7706	1482	1
0	7717	1484	1
0	7780	1495	1
0	7896	1516	1
0	7908	1518	1
0	7918	1519	1
0	7947	1527	1
0	7953	1528	2
0	7962	1530	1
0	7997	1535	1
0	8051	1552	1
0	8058	1553	1
0	8072	1555	1
0	8085	1559	1
0	8099	1561	1
0	8115	1565	1
0	8124	1566	2
0	8144	1570	1
0	8155	1571	1
0	8161	1572	2
0	8179	1576	1
0	8203	1579	1
0	8222	1582	1
0	8228	1583	2
0	8238	1584	1
0	8274	1591	1
0	8303	1597	1
0	8335	1603	6
0	8341	1604	7
0	8351	1605	1
0	8390	1612	1
0	8406	1614	1
0	8413	1615	1
0	8424	1618	1
0	8431	1619	1
0	8438	1620	1
0	8445	1621	1
0	8477	1629	1
0	8483	1630	2
0	8604	1664	1
0	8643	1675	1
0	8673	1680	1
0	8710	1687	1
0	8745	1692	1
0	8797	1700	1
0	8808	1701	2
0	8840	1707	1
0	8911	1723	1
0	8937	1727	1
0	8972	1737	1
0	8992	1742	1
0	9020	1748	1
0	9026	1749	2
0	9044	1753	1
0	9054	1755	1
0	9060	1756	2
0	9067	1757	1
0	9085	1763	2
0	9101	1766	1
0	9139	1774	1
0	9186	1782	1
0	9205	1784	1
0	9238	1790	1
0	9256	1792	1
0	9276	1796	1
0	9299	1799	1
0	9333	1806	1
0	9355	1808	1
0	9366	1809	1
0	9423	1821	1
0	9466	1830	1
0	9485	1833	1
0	9492	1834	1
0	9527	1844	1
0	9534	1845	1
0	9576	1855	1
0	9589	1856	1
0	9598	1857	2
0	9612	1860	1
0	9668	1872	1
0	9687	1879	1
0	9708	1883	1
0	9717	1884	2
0	9738	1887	1
0	9748	1889	1
0	9757	1890	2
0	9770	1891	1
0	9800	1897	7
0	9806	1898	6
0	9835	1904	1
0	9857	1907	1
0	9866	1908	2
0	9916	1920	1
0	9922	1921	2
0	9955	1930	1
0	9969	1932	1
0	9991	1938	1
0	10033	1945	1
0	10100	1958	1
0	10122	1961	1
0	10135	1964	1
0	10320	2000	1
0	10379	2013	1
0	10397	2015	1
0	10436	2022	1
0	10447	2023	1
0	10456	2024	2
0	10481	2027	1
0	10610	2054	1
0	10630	2060	1
0	10664	2066	1
0	10693	2071	1
0	10728	2075	1
0	10738	2076	2
0	10784	2083	1
0	10808	2089	1
0	10851	2097	1
0	10880	2103	7
0	10890	2104	8
0	10899	2105	2
0	10909	2106	1
0	10919	2107	2
0	10936	2110	1
0	10966	2115	1
0	10973	2116	1
0	11011	2124	1
0	11071	2135	1
0	11078	2136	1
0	11087	2138	1
0	11097	2140	1
0	11103	2141	2
0	11131	2149	1
0	11145	2152	1
0	11155	2154	1
0	11161	2155	2
0	11170	2157	1
0	11177	2158	1
0	11184	2159	1
0	11197	2161	1
0	11268	2171	1
0	11279	2172	2
0	11289	2173	2
0	11299	2174	1
0	11322	2178	1
0	11351	2186	1
0	11367	2188	1
0	11374	2189	1
0	11448	2203	1
0	11459	2206	1
0	11480	2209	1
0	11508	2214	1
0	11517	2215	2
0	11526	2217	1
0	11540	2219	1
0	11549	2221	1
0	11571	2227	1
0	11589	2231	1
0	11604	2236	1
0	11642	2245	1
0	11649	2246	1
0	11668	2249	1
0	11680	2250	1
0	11689	2251	2
0	11718	2258	1
0	11750	2266	1
0	11756	2267	2
0	11765	2269	1
0	11787	2273	1
0	11825	2279	1
0	11874	2288	1
0	11912	2293	1
0	11943	2297	1
0	11953	2298	1
0	11965	2301	1
0	11976	2302	2
0	12022	2314	1
0	12052	2320	1
0	12070	2326	2
0	12123	2339	1
0	12144	2343	1
0	12153	2345	1
0	12164	2348	1
0	12188	2355	1
0	12219	2362	1
0	12263	2370	1
0	12308	2385	1
0	12328	2390	1
0	12356	2394	1
0	12398	2401	1
0	12416	2403	1
0	12430	2406	1
0	12440	2407	1
0	12491	2418	1
0	12509	2423	1
0	12568	2439	1
0	12580	2441	1
0	12603	2445	1
0	12650	2455	1
0	12674	2458	1
0	12721	2473	1
0	12731	2474	1
0	12779	2486	1
0	12832	2496	1
0	12879	2503	1
0	12909	2508	1
0	12916	2509	1
0	12931	2514	1
0	12993	2533	1
0	13011	2535	1
0	13021	2536	1
0	13031	2537	1
0	13049	2539	1
0	13059	2540	1
0	13081	2545	1
0	13114	2549	1
0	13133	2551	1
0	13139	2552	2
0	13149	2553	3
0	13212	2564	1
0	13232	2568	1
0	13343	2597	1
0	13429	2616	1
0	13465	2621	1
0	13475	2622	2
0	13485	2623	1
0	13495	2624	1
0	13544	2635	1
0	13578	2642	1
0	13589	2645	1
0	13655	2662	1
0	13671	2666	1
0	13735	2676	1
0	13767	2680	1
0	13779	2681	1
0	13789	2682	2
0	13795	2683	2
0	13806	2686	1
0	13824	2692	4
0	13876	2703	1
0	13887	2704	1
0	13895	2705	2
0	13909	2707	1
0	13942	2716	1
0	13968	2720	1
0	13977	2721	2
0	14003	2729	1
0	14010	2730	1
0	14033	2739	1
0	14069	2748	1
0	14080	2749	1
0	14108	2753	1
0	14152	2765	1
0	14193	2774	1
0	14204	2777	1
0	14211	2778	1
0	14222	2781	1
0	14243	2788	1
0	14270	2795	1
0	14288	2799	1
0	14336	2808	1
0	14391	2822	1
0	14417	2830	1
0	14494	2843	1
0	14514	2845	1
0	14524	2846	2
0	14575	2854	1
0	14600	2860	1
0	14633	2866	2
0	14684	2875	1
0	14695	2876	2
0	14701	2877	2
0	14707	2878	3
0	14714	2879	1
0	14739	2883	1
0	14767	2889	1
0	14783	2891	1
0	14839	2904	1
0	14958	2931	1
0	14974	2934	1
0	14992	2938	1
0	15056	2950	1
0	15102	2962	1
0	15126	2965	1
0	15141	2967	1
0	15150	2968	2
0	15187	2973	1
0	15201	2976	1
0	15270	2992	1
0	15308	3000	1
0	15325	3002	1
0	15518	3031	1
0	15570	3042	1
0	15577	3043	1
0	15600	3052	1
0	15640	3062	1
0	15667	3069	1
0	15686	3072	1
0	15719	3078	7
0	15729	3079	5
0	15750	3084	1
0	15761	3087	1
0	15772	3088	1
0	15781	3089	2
0	15789	3090	2
0	15795	3091	2
0	15801	3092	3
0	15867	3105	1
0	15874	3106	1
0	15883	3108	1
0	15894	3109	1
0	15911	3112	1
0	15937	3116	1
0	15948	3117	1
0	15975	3124	1
0	16020	3131	1
0	16026	3132	2
0	16102	3144	1
0	16124	3151	1
0	16160	3159	1
0	16183	3164	1
0	16212	3168	1
0	16224	3169	2
0	16261	3177	1
0	16270	3179	1
0	16309	3191	1
0	16341	3198	1
0	16355	3199	1
0	16403	3205	3
0	16414	3206	1
0	16426	3207	1
0	16438	3208	2
0	16448	3209	2
0	16487	3217	1
0	16494	3218	1
0	16537	3227	1
0	16564	3233	1
0	16576	3235	1
0	16658	3248	1
0	16700	3255	1
0	16741	3263	1
0	16776	3269	1
0	16808	3274	1
0	16827	3277	1
0	16857	3282	1
0	16867	3284	1
0	16876	3285	2
0	16928	3294	1
0	16940	3296	1
0	16956	3299	1
0	16963	3300	1
0	16974	3303	1
0	16984	3304	1
0	16997	3307	1
0	17007	3308	1
0	17020	3311	1
0	17050	3316	1
0	17066	3319	1
0	17113	3325	6
0	17122	3326	4
0	17131	3327	3
0	17144	3330	1
0	17156	3332	1
0	17190	3336	1
0	17221	3341	1
0	17262	3354	1
0	17288	3362	1
0	17356	3378	1
0	17367	3379	1
0	17391	3382	1
0	17438	3394	1
0	17447	3395	2
0	17464	3399	1
0	17474	3400	1
0	17483	3402	1
0	17524	3410	1
0	17550	3417	1
0	17562	3418	1
0	17628	3431	1
0	17638	3432	1
0	17647	3434	1
0	17658	3437	1
0	17667	3439	1
0	17701	3445	1
0	17791	3462	1
0	17801	3463	2
0	17808	3464	2
0	17818	3465	2
0	17853	3471	7
0	17859	3472	4
0	17882	3476	1
0	17892	3477	1
0	17905	3479	1
0	17951	3488	1
0	17960	3490	1
0	17974	3492	1
0	17999	3495	1
0	18047	3501	1
0	18057	3502	2
0	18100	3515	1
0	18145	3525	1
0	18212	3534	1
0	18245	3540	1
0	18252	3541	1
0	18263	3544	1
0	18318	3559	1
0	18406	3583	1
0	18426	3588	1
0	18436	3589	1
0	18453	3593	1
0	18478	3598	1
0	18492	3600	1
0	18511	3603	1
0	18549	3611	1
0	18559	3612	1
0	18621	3627	1
0	18639	3632	1
0	18662	3636	1
0	18680	3642	5
0	18749	3655	1
0	18775	3662	1
0	18822	3668	1
0	18833	3669	1
0	18851	3671	1
0	18861	3672	2
0	18867	3673	2
0	18881	3675	1
0	18905	3682	1
0	18922	3685	1
0	18928	3686	2
0	18979	3695	1
0	18991	3696	2
0	19002	3697	2
0	19019	3699	1
0	19035	3702	1
0	19042	3703	1
0	19062	3708	1
0	19079	3713	1
0	19107	3718	1
0	19122	3723	1
0	19158	3731	1
0	19181	3734	1
0	19204	3739	1
0	19301	3765	1
0	19329	3769	1
0	19373	3780	1
0	19385	3782	1
0	19468	3801	1
0	19579	3829	1
0	19624	3836	1
0	19634	3837	1
0	19643	3838	1
0	19682	3854	1
0	19696	3857	1
0	19707	3860	1
0	19781	3872	1
0	19794	3876	1
0	19806	3878	1
0	19828	3883	1
0	19837	3885	1
0	19852	3890	1
0	19886	3902	1
0	19964	3917	1
0	19990	3924	1
0	20027	3930	1
0	20041	3934	1
0	20047	3935	2
0	20056	3937	1
0	20063	3938	1
0	20155	3959	1
0	20225	3974	1
0	20259	3980	1
0	20285	3983	1
0	20322	3993	1
0	20343	3995	1
0	20360	3997	1
0	20375	3998	1
0	20386	3999	1
0	20430	4005	5
0	20442	4006	1
0	20454	4007	1
0	20464	4008	1
0	20491	4013	1
0	20536	4024	1
0	20583	4037	1
0	20589	4038	2
0	20618	4050	1
0	20639	4053	1
0	20677	4066	1
0	20723	4074	1
0	20765	4081	1
0	20796	4089	1
0	20805	4091	1
0	20821	4093	1
0	20835	4096	1
0	20857	4102	1
0	20874	4104	1
0	20897	4107	1
0	20904	4108	1
0	20924	4113	1
0	20953	4119	1
0	20979	4122	1
0	20996	4124	1
0	21005	4126	1
0	21016	4128	1
0	21067	4139	1
0	21077	4140	2
0	21089	4141	2
0	21119	4147	4
0	21125	4148	4
0	21134	4150	1
0	21148	4152	1
0	21174	4159	1
0	21184	4160	1
0	21195	4163	1
0	21204	4165	1
0	21237	4174	1
0	21244	4175	1
0	21267	4179	1
0	21276	4181	1
0	21305	4188	1
0	21329	4192	1
0	21339	4193	2
0	21354	4195	1
0	21389	4203	1
0	21433	4211	1
0	21443	4212	1
0	21457	4214	1
0	21477	4219	1
0	21521	4231	1
0	21551	4238	1
0	21557	4239	2
0	21616	4253	1
0	21622	4254	2
0	21658	4261	1
0	21686	4266	1
0	21722	4274	1
0	21754	4280	1
0	21801	4290	1
0	21807	4291	2
0	21817	4292	1
0	21827	4293	1
0	21833	4294	2
0	21852	4296	1
0	21863	4297	1
0	21881	4299	1
0	21928	4305	1
0	21967	4314	1
0	21978	4315	2
0	21987	4316	3
0	22017	4320	1
0	22041	4325	1
0	22047	4326	2
0	22078	4333	1
0	22150	4350	1
0	22157	4351	1
0	22167	4352	1
0	22198	4357	1
0	22222	4360	1
0	22241	4363	1
0	22253	4366	1
0	22262	4367	2
0	22275	4370	1
0	22282	4371	1
0	22350	4382	1
0	22396	4388	1
0	22413	4390	1
0	22429	4392	1
0	22487	4403	1
0	22496	4405	1
0	22521	4408	1
0	22550	4412	1
0	22581	4420	1
0	22616	4430	1
0	22625	4432	1
0	22641	4435	1
0	22650	4437	1
0	22659	4439	1
0	22735	4452	1
0	22757	4458	1
0	22787	4464	1
0	22843	4476	1
0	22870	4482	1
0	22891	4490	1
0	22924	4499	1
0	22938	4501	1
0	22970	4507	1
0	22977	4508	1
0	23002	4515	1
0	23008	4516	2
0	23038	4521	1
0	23047	4523	1
0	23054	4524	1
0	23064	4525	1
0	23099	4535	1
0	23162	4547	1
0	23233	4561	1
0	23242	4563	1
0	23276	4571	1
0	23286	4572	1
0	23319	4581	1
0	23341	4586	1
0	23397	4595	1
0	23469	4611	1
0	23476	4612	1
0	23492	4615	1
0	23502	4616	1
0	23513	4618	1
0	23524	4621	1
0	23542	4625	1
0	23574	4630	1
0	23594	4633	1
0	23600	4634	2
0	23663	4643	1
0	23697	4647	1
0	23707	4648	2
0	23749	4655	1
0	23774	4658	1
0	23780	4659	2
0	23799	4666	1
0	23830	4674	1
0	23843	4678	1
0	23913	4693	1
0	23933	4698	1
0	23957	4705	1
0	23978	4708	1
0	23987	4710	1
0	24044	4721	1
0	24072	4727	2
0	24082	4728	1
0	24091	4729	1
0	24115	4733	1
0	24122	4734	2
0	24128	4735	2
0	24154	4738	1
0	24184	4742	1
0	24205	4746	1
0	24234	4753	1
0	24247	4757	1
0	24254	4758	1
0	24319	4773	1
0	24350	4780	1
0	24393	4789	1
0	24424	4794	1
0	24464	4803	1
0	24474	4804	1
0	24483	4805	1
0	24526	4813	1
0	24560	4818	1
0	24566	4819	2
0	24584	4822	1
0	24596	4824	1
0	24647	4833	1
0	24656	4834	2
0	24705	4846	1
0	24716	4848	1
0	24726	4849	1
0	24737	4851	1
0	24758	4857	5
0	24768	4858	1
0	24845	4873	1
0	24864	4880	1
0	24887	4889	1
0	24898	4890	1
0	25004	4913	1
0	25015	4914	1
0	25033	4917	1
0	25042	4919	1
0	25063	4922	1
0	25090	4929	1
0	25131	4941	1
0	25144	4944	1
0	25174	4950	1
0	25185	4953	1
0	25252	4974	1
0	25269	4979	1
0	25283	4981	1
0	25347	4999	1
1	2026	402	1
1	2026	402	0
1	2039	406	1
1	2039	406	0
1	2062	413	1
1	2062	413	0
1	2088	418	1
1	2088	418	0
1	2089	418	1
1	2095	419	0
1	2111	422	1
1	2111	422	0
1	2112	422	1
1	2139	427	2
1	2140	427	3
1	2146	428	2
1	2152	429	1
1	2159	430	0
1	2172	432	1
1	2172	432	0
1	2195	436	1
1	2195	436	0
1	2244	444	1
1	2244	444	0
1	2245	444	1
1	2253	445	0
1	2266	447	1
1	2266	447	0
1	2336	459	1
1	2336	459	0
1	2408	475	1
1	2408	475	0
1	2421	479	1
1	2421	479	0
1	2430	481	1
1	2430	481	0
1	2446	485	1
1	2446	485	0
1	2453	486	1
1	2455	486	0
1	2471	489	1
1	2471	489	0
1	2488	495	1
1	2488	495	0
1	2559	508	1
1	2559	508	0
1	2560	508	1
1	2566	509	0
1	2577	512	1
1	2577	512	0
1	2597	517	1
1	2597	517	0
1	2632	524	1
1	2632	524	0
1	2661	529	1
1	2661	529	0
1	2681	534	1
1	2681	534	0
1	2708	540	1
1	2708	540	0
1	2743	546	1
1	2743	546	0
1	2846	564	1
1	2846	564	0
1	2876	569	1
1	2876	569	0
1	2888	571	1
1	2888	571	0
1	2889	571	1
1	2900	572	0
1	2911	574	1
1	2911	574	0
1	2919	575	1
1	2949	579	2
1	2958	580	1
1	2966	581	0
1	2971	582	1
1	2973	582	0
1	3003	587	1
1	3003	587	0
1	3008	588	1
1	3010	588	0
1	3031	592	1
1	3031	592	0
1	3032	592	1
1	3043	593	0
1	3069	600	1
1	3069	600	0
1	3080	603	1
1	3080	603	0
1	3094	606	1
1	3094	606	0
1	3152	619	1
1	3152	619	0
1	3157	620	1
1	3159	620	0
1	3185	626	1
1	3185	626	0
1	3219	631	1
1	3219	631	0
1	3248	637	1
1	3248	637	0
1	3285	645	1
1	3285	645	0
1	3286	645	1
1	3297	646	0
1	3323	649	1
1	3323	649	0
1	3360	654	1
1	3360	654	0
1	3373	657	1
1	3373	657	0
1	3382	659	1
1	3382	659	0
1	3390	660	1
1	3392	660	0
1	3456	676	1
1	3456	676	0
1	3498	682	1
1	3498	682	0
1	3510	684	1
1	3510	684	0
1	3534	690	1
1	3534	690	0
1	3548	692	1
1	3548	692	0
1	3562	694	1
1	3562	694	0
1	3710	723	1
1	3710	723	0
1	3726	726	1
1	3726	726	0
1	3734	727	1
1	3749	732	0
1	3766	738	1
1	3766	738	0
1	3826	748	1
1	3826	748	0
1	3834	749	1
1	3836	749	0
1	3898	759	1
1	3898	759	0
1	3942	766	1
1	3942	766	0
1	3943	766	1
1	3950	767	0
1	3970	770	1
1	3970	770	0
1	3978	771	1
1	3979	771	2
1	3981	771	1
1	3988	772	2
1	3990	772	1
1	3996	773	0
1	4005	775	1
1	4005	775	0
1	4006	775	1
1	4012	776	0
1	4021	778	1
1	4021	778	0
1	4026	779	1
1	4028	779	0
1	4041	781	1
1	4041	781	0
1	4079	787	1
1	4079	787	0
1	4124	798	1
1	4124	798	0
1	4163	804	1
1	4163	804	0
1	4164	804	1
1	4169	805	2
1	4171	805	1
1	4179	806	0
1	4195	808	1
1	4195	808	0
1	4234	818	1
1	4234	818	0
1	4281	828	1
1	4281	828	0
1	4292	831	1
1	4292	831	0
1	4301	832	1
1	4305	832	0
1	4334	837	1
1	4334	837	0
1	4344	838	1
1	4346	838	0
1	4426	849	1
1	4426	849	0
1	4433	850	1
1	4437	850	0
1	4464	855	1
1	4468	856	0
1	4469	856	1
1	4478	857	0
1	4539	870	1
1	4539	870	0
1	4569	875	1
1	4569	875	0
1	4570	875	1
1	4578	876	0
1	4583	877	1
1	4585	877	0
1	4590	878	1
1	4593	878	0
1	4650	888	1
1	4650	888	0
1	4657	889	1
1	4659	889	0
1	4664	890	1
1	4666	890	0
1	4687	898	1
1	4687	898	0
1	4692	899	1
1	4694	899	0
1	4703	901	1
1	4703	901	0
1	4736	910	1
1	4736	910	0
1	4737	910	1
1	4743	911	0
1	4774	919	1
1	4774	919	0
1	4788	921	1
1	4788	921	0
1	4867	944	1
1	4867	944	0
1	4868	944	1
1	4879	945	0
1	4925	952	1
1	4925	952	0
1	4991	966	1
1	4991	966	0
1	5002	968	1
1	5002	968	0
1	5011	970	1
1	5011	970	0
1	5034	974	1
1	5034	974	0
1	5152	998	1
1	5152	998	0
1	5169	1000	1
1	5169	1000	0
1	5192	1003	1
1	5192	1003	0
1	5229	1014	1
1	5229	1014	0
1	5243	1016	1
1	5243	1016	0
1	5290	1028	1
1	5290	1028	0
1	5300	1030	1
1	5312	1033	2
1	5320	1034	1
1	5331	1035	0
1	5340	1036	1
1	5342	1036	0
1	5349	1037	1
1	5351	1037	0
1	5373	1041	1
1	5373	1041	0
1	5403	1049	1
1	5403	1049	0
1	5452	1060	1
1	5452	1060	0
1	5464	1062	1
1	5464	1062	0
1	5471	1063	1
1	5473	1063	0
1	5484	1066	1
1	5484	1066	0
1	5485	1066	1
1	5490	1067	2
1	5492	1067	1
1	5498	1068	0
1	5521	1073	1
1	5521	1073	0
1	5532	1075	1
1	5532	1075	0
1	5548	1078	1
1	5548	1078	0
1	5578	1083	1
1	5578	1083	0
1	5586	1084	1
1	5588	1084	0
1	5601	1087	1
1	5601	1087	0
1	5617	1090	1
1	5617	1090	0
1	5618	1090	1
1	5626	1091	2
1	5629	1091	1
1	5639	1092	0
1	5657	1096	1
1	5657	1096	0
1	5673	1099	1
1	5673	1099	0
1	5825	1124	1
1	5825	1124	0
1	5857	1128	1
1	5857	1128	0
1	5875	1130	1
1	5875	1130	0
1	5900	1134	1
1	5900	1134	0
1	5917	1140	1
1	5917	1140	0
1	5933	1144	1
1	5933	1144	0
1	5967	1151	1
1	5967	1151	0
1	5991	1156	1
1	5997	1157	0
1	6025	1162	1
1	6025	1162	0
1	6052	1172	1
1	6052	1172	0
1	6063	1175	1
1	6063	1175	0
1	6081	1177	1
1	6081	1177	0
1	6090	1178	1
1	6093	1178	0
1	6117	1182	1
1	6117	1182	0
1	6168	1191	1
1	6168	1191	0
1	6194	1194	1
1	6194	1194	0
1	6210	1196	1
1	6210	1196	0
1	6224	1199	1
1	6224	1199	0
1	6234	1200	1
1	6236	1200	0
1	6252	1203	1
1	6252	1203	0
1	6253	1203	1
1	6264	1204	0
1	6316	1214	1
1	6316	1214	0
1	6317	1214	1
1	6323	1215	0
1	6328	1216	1
1	6331	1216	0
1	6375	1222	1
1	6375	1222	0
1	6404	1228	1
1	6404	1228	0
1	6409	1229	1
1	6411	1229	0
1	6424	1233	1
1	6424	1233	0
1	6438	1236	1
1	6438	1236	0
1	6460	1239	1
1	6460	1239	0
1	6470	1240	1
1	6472	1240	0
1	6527	1248	1
1	6527	1248	0
1	6547	1252	1
1	6547	1252	0
1	6589	1259	1
1	6589	1259	0
1	6596	1260	1
1	6598	1260	0
1	6620	1266	1
1	6620	1266	0
1	6640	1271	1
1	6640	1271	0
1	6661	1275	1
1	6673	1277	0
1	6674	1277	1
1	6683	1278	0
1	6704	1281	1
1	6704	1281	0
1	6803	1302	1
1	6803	1302	0
1	6808	1303	1
1	6810	1303	0
1	6826	1307	1
1	6826	1307	0
1	6858	1317	1
1	6858	1317	0
1	6873	1320	1
1	6873	1320	0
1	6966	1336	1
1	6966	1336	0
1	7011	1342	1
1	7011	1342	0
1	7018	1343	1
1	7021	1343	0
1	7062	1354	1
1	7062	1354	0
1	7080	1358	1
1	7080	1358	0
1	7132	1365	1
1	7132	1365	0
1	7133	1365	1
1	7134	1365	2
1	7146	1366	1
1	7155	1367	2
1	7157	1367	1
1	7165	1368	0
1	7208	1382	1
1	7208	1382	0
1	7209	1382	1
1	7218	1383	0
1	7276	1392	1
1	7276	1392	0
1	7287	1394	1
1	7287	1394	0
1	7345	1403	1
1	7345	1403	0
1	7346	1403	1
1	7353	1404	0
1	7360	1405	1
1	7366	1405	0
1	7382	1407	1
1	7382	1407	0
1	7431	1414	1
1	7431	1414	0
1	7432	1414	1
1	7442	1415	0
1	7498	1427	1
1	7498	1427	0
1	7529	1435	1
1	7529	1435	0
1	7599	1455	1
1	7599	1455	0
1	7604	1456	1
1	7612	1457	2
1	7636	1461	1
1	7644	1462	0
1	7695	1480	1
1	7695	1480	0
1	7700	1481	1
1	7702	1481	0
1	7711	1483	1
1	7711	1483	0
1	7773	1494	1
1	7773	1494	0
1	7890	1515	1
1	7890	1515	0
1	7904	1517	1
1	7904	1517	0
1	7909	1518	1
1	7912	1518	0
1	7942	1526	1
1	7942	1526	0
1	7943	1526	1
1	7949	1527	0
1	7958	1529	1
1	7958	1529	0
1	7991	1534	1
1	7991	1534	0
1	8045	1551	1
1	8045	1551	0
1	8052	1552	1
1	8054	1552	0
1	8066	1554	1
1	8066	1554	0
1	8081	1558	1
1	8081	1558	0
1	8093	1560	1
1	8093	1560	0
1	8108	1564	1
1	8108	1564	0
1	8109	1564	1
1	8118	1565	0
1	8137	1569	1
1	8137	1569	0
1	8146	1570	1
1	8147	1570	2
1	8149	1570	1
1	8157	1571	0
1	8170	1575	1
1	8170	1575	0
1	8195	1578	1
1	8195	1578	0
1	8217	1581	1
1	8217	1581	0
1	8218	1581	1
1	8224	1582	0
1	8229	1583	1
1	8232	1583	0
1	8270	1590	1
1	8270	1590	0
1	8296	1596	1
1	8296	1596	0
1	8305	1597	1
1	8306	1597	2
1	8331	1602	1
1	8337	1603	0
1	8342	1604	1
1	8345	1604	0
1	8382	1611	1
1	8382	1611	0
1	8400	1613	1
1	8400	1613	0
1	8407	1614	1
1	8409	1614	0
1	8420	1617	1
1	8420	1617	0
1	8425	1618	1
1	8427	1618	0
1	8432	1619	1
1	8434	1619	0
1	8439	1620	1
1	8441	1620	0
1	8472	1628	1
1	8472	1628	0
1	8473	1628	1
1	8479	1629	0
1	8596	1663	1
1	8596	1663	0
1	8639	1674	1
1	8639	1674	0
1	8669	1679	1
1	8669	1679	0
1	8703	1686	1
1	8703	1686	0
1	8738	1691	1
1	8738	1691	0
1	8788	1699	1
1	8788	1699	0
1	8789	1699	1
1	8801	1700	0
1	8833	1706	1
1	8833	1706	0
1	8905	1722	1
1	8905	1722	0
1	8933	1726	1
1	8933	1726	0
1	8968	1736	1
1	8968	1736	0
1	8988	1741	1
1	8988	1741	0
1	9013	1747	1
1	9013	1747	0
1	9014	1747	1
1	9022	1748	0
1	9038	1752	1
1	9038	1752	0
1	9049	1754	1
1	9049	1754	0
1	9050	1754	1
1	9056	1755	0
1	9061	1756	1
1	9063	1756	0
1	9077	1761	1
1	9081	1762	0
1	9097	1765	1
1	9097	1765	0
1	9133	1773	1
1	9133	1773	0
1	9179	1781	1
1	9179	1781	0
1	9198	1783	1
1	9198	1783	0
1	9231	1789	1
1	9231	1789	0
1	9249	1791	1
1	9249	1791	0
1	9272	1795	1
1	9272	1795	0
1	9291	1798	1
1	9291	1798	0
1	9326	1805	1
1	9326	1805	0
1	9347	1807	1
1	9347	1807	0
1	9357	1808	1
1	9359	1808	0
1	9415	1820	1
1	9415	1820	0
1	9460	1829	1
1	9460	1829	0
1	9481	1832	1
1	9481	1832	0
1	9486	1833	1
1	9488	1833	0
1	9523	1843	1
1	9523	1843	0
1	9528	1844	1
1	9530	1844	0
1	9568	1854	1
1	9568	1854	0
1	9578	1855	1
1	9579	1855	2
1	9582	1855	1
1	9592	1856	0
1	9605	1859	1
1	9605	1859	0
1	9662	1871	1
1	9662	1871	0
1	9683	1878	1
1	9683	1878	0
1	9701	1882	1
1	9701	1882	0
1	9702	1882	1
1	9711	1883	0
1	9732	1886	1
1	9732	1886	0
1	9743	1888	1
1	9743	1888	0
1	9744	1888	1
1	9751	1889	0
1	9758	1890	1
1	9759	1890	2
1	9764	1890	1
1	9779	1892	2
1	9796	1896	1
1	9802	1897	0
1	9829	1903	1
1	9829	1903	0
1	9849	1906	1
1	9849	1906	0
1	9850	1906	1
1	9860	1907	0
1	9911	1919	1
1	9911	1919	0
1	9912	1919	1
1	9918	1920	0
1	9951	1929	1
1	9951	1929	0
1	9963	1931	1
1	9963	1931	0
1	9987	1937	1
1	9987	1937	0
1	10025	1944	1
1	10025	1944	0
1	10091	1957	1
1	10091	1957	0
1	10116	1960	1
1	10116	1960	0
1	10129	1963	1
1	10129	1963	0
1	10316	1999	1
1	10316	1999	0
1	10371	2012	1
1	10371	2012	0
1	10390	2014	1
1	10390	2014	0
1	10429	2021	1
1	10429	2021	0
1	10438	2022	1
1	10439	2022	2
1	10441	2022	1
1	10450	2023	0
1	10474	2026	1
1	10474	2026	0
1	10603	2053	1
1	10603	2053	0
1	10626	2059	1
1	10626	2059	0
1	10658	2065	1
1	10658	2065	0
1	10686	2070	1
1	10686	2070	0
1	10719	2074	1
1	10719	2074	0
1	10720	2074	1
1	10731	2075	0
1	10777	2082	1
1	10777	2082	0
1	10804	2088	1
1	10804	2088	0
1	10845	2096	1
1	10845	2096	0
1	10846	2096	1
1	10847	2096	2
1	10872	2102	1
1	10882	2103	2
1	10884	2103	1
1	10893	2104	0
1	10900	2105	1
1	10901	2105	2
1	10905	2105	1
1	10913	2106	0
1	10932	2109	1
1	10932	2109	0
1	10960	2114	1
1	10960	2114	0
1	10967	2115	1
1	10969	2115	0
1	11004	2123	1
1	11004	2123	0
1	11065	2134	1
1	11065	2134	0
1	11072	2135	1
1	11074	2135	0
1	11083	2137	1
1	11083	2137	0
1	11092	2139	1
1	11092	2139	0
1	11093	2139	1
1	11099	2140	0
1	11123	2148	1
1	11123	2148	0
1	11141	2151	1
1	11141	2151	0
1	11150	2153	1
1	11150	2153	0
1	11151	2153	1
1	11157	2154	0
1	11166	2156	1
1	11166	2156	0
1	11171	2157	1
1	11173	2157	0
1	11178	2158	1
1	11180	2158	0
1	11189	2160	1
1	11189	2160	0
1	11259	2170	1
1	11259	2170	0
1	11260	2170	1
1	11270	2171	2
1	11272	2171	1
1	11282	2172	0
1	11291	2173	1
1	11293	2173	0
1	11316	2177	1
1	11316	2177	0
1	11344	2185	1
1	11344	2185	0
1	11361	2187	1
1	11361	2187	0
1	11368	2188	1
1	11370	2188	0
1	11444	2202	1
1	11444	2202	0
1	11455	2205	1
1	11455	2205	0
1	11474	2208	1
1	11474	2208	0
1	11499	2213	1
1	11499	2213	0
1	11500	2213	1
1	11511	2214	0
1	11522	2216	1
1	11522	2216	0
1	11534	2218	1
1	11534	2218	0
1	11545	2220	1
1	11545	2220	0
1	11567	2226	1
1	11567	2226	0
1	11583	2230	1
1	11583	2230	0
1	11600	2235	1
1	11600	2235	0
1	11638	2244	1
1	11638	2244	0
1	11643	2245	1
1	11645	2245	0
1	11661	2248	1
1	11661	2248	0
1	11670	2249	1
1	11671	2249	2
1	11673	2249	1
1	11683	2250	0
1	11714	2257	1
1	11714	2257	0
1	11743	2265	1
1	11743	2265	0
1	11744	2265	1
1	11752	2266	0
1	11761	2268	1
1	11761	2268	0
1	11778	2272	1
1	11778	2272	0
1	11821	2278	1
1	11821	2278	0
1	11866	2287	1
1	11866	2287	0
1	11905	2292	1
1	11905	2292	0
1	11936	2296	1
1	11936	2296	0
1	11945	2297	1
1	11947	2297	0
1	11960	2300	1
1	11960	2300	0
1	11961	2300	1
1	11970	2301	0
1	12016	2313	1
1	12016	2313	0
1	12048	2319	1
1	12048	2319	0
1	12062	2324	1
1	12066	2325	0
1	12117	2338	1
1	12117	2338	0
1	12138	2342	1
1	12138	2342	0
1	12149	2344	1
1	12149	2344	0
1	12160	2347	1
1	12160	2347	0
1	12184	2354	1
1	12184	2354	0
1	12212	2361	1
1	12212	2361	0
1	12257	2369	1
1	12257	2369	0
1	12304	2384	1
1	12304	2384	0
1	12324	2389	1
1	12324	2389	0
1	12346	2393	1
1	12346	2393	0
1	12391	2400	1
1	12391	2400	0
1	12408	2402	1
1	12408	2402	0
1	12426	2405	1
1	12426	2405	0
1	12431	2406	1
1	12434	2406	0
1	12484	2417	1
1	12484	2417	0
1	12505	2422	1
1	12505	2422	0
1	12562	2438	1
1	12562	2438	0
1	12576	2440	1
1	12576	2440	0
1	12597	2444	1
1	12597	2444	0
1	12643	2454	1
1	12643	2454	0
1	12668	2457	1
1	12668	2457	0
1	12715	2472	1
1	12715	2472	0
1	12723	2473	1
1	12725	2473	0
1	12771	2485	1
1	12771	2485	0
1	12822	2495	1
1	12822	2495	0
1	12873	2502	1
1	12873	2502	0
1	12903	2507	1
1	12903	2507	0
1	12910	2508	1
1	12912	2508	0
1	12927	2513	1
1	12927	2513	0
1	12984	2532	1
1	12984	2532	0
1	13004	2534	1
1	13004	2534	0
1	13013	2535	1
1	13015	2535	0
1	13022	2536	1
1	13025	2536	0
1	13041	2538	1
1	13041	2538	0
1	13051	2539	1
1	13053	2539	0
1	13073	2544	1
1	13073	2544	0
1	13107	2548	1
1	13107	2548	0
1	13125	2550	1
1	13125	2550	0
1	13126	2550	1
1	13127	2550	2
1	13135	2551	1
1	13143	2552	0
1	13208	2563	1
1	13208	2563	0
1	13226	2567	1
1	13226	2567	0
1	13339	2596	1
1	13339	2596	0
1	13421	2615	1
1	13421	2615	0
1	13457	2620	1
1	13457	2620	0
1	13458	2620	1
1	13468	2621	0
1	13477	2622	1
1	13479	2622	0
1	13486	2623	1
1	13489	2623	0
1	13540	2634	1
1	13540	2634	0
1	13572	2641	1
1	13572	2641	0
1	13585	2644	1
1	13585	2644	0
1	13649	2661	1
1	13649	2661	0
1	13667	2665	1
1	13667	2665	0
1	13727	2675	1
1	13727	2675	0
1	13758	2679	1
1	13758	2679	0
1	13769	2680	1
1	13770	2680	2
1	13772	2680	1
1	13781	2681	2
1	13783	2681	1
1	13791	2682	0
1	13802	2685	1
1	13802	2685	0
1	13812	2688	1
1	13820	2691	0
1	13870	2702	1
1	13870	2702	0
1	13877	2703	1
1	13878	2703	2
1	13881	2703	1
1	13891	2704	0
1	13903	2706	1
1	13903	2706	0
1	13938	2715	1
1	13938	2715	0
1	13960	2719	1
1	13960	2719	0
1	13961	2719	1
1	13971	2720	0
1	13997	2728	1
1	13997	2728	0
1	14004	2729	1
1	14006	2729	0
1	14029	2738	1
1	14029	2738	0
1	14060	2747	1
1	14060	2747	0
1	14071	2748	1
1	14073	2748	0
1	14102	2752	1
1	14102	2752	0
1	14146	2764	1
1	14146	2764	0
1	14187	2773	1
1	14187	2773	0
1	14200	2776	1
1	14200	2776	0
1	14205	2777	1
1	14207	2777	0
1	14218	2780	1
1	14218	2780	0
1	14237	2787	1
1	14237	2787	0
1	14264	2794	1
1	14264	2794	0
1	14284	2798	1
1	14284	2798	0
1	14330	2807	1
1	14330	2807	0
1	14385	2821	1
1	14385	2821	0
1	14411	2829	1
1	14411	2829	0
1	14487	2842	1
1	14487	2842	0
1	14504	2844	1
1	14504	2844	0
1	14505	2844	1
1	14517	2845	0
1	14567	2853	1
1	14567	2853	0
1	14596	2859	1
1	14596	2859	0
1	14625	2864	1
1	14629	2865	0
1	14676	2874	1
1	14676	2874	0
1	14677	2874	1
1	14686	2875	2
1	14687	2875	3
1	14689	2875	2
1	14697	2876	1
1	14703	2877	0
1	14708	2878	1
1	14710	2878	0
1	14732	2882	1
1	14732	2882	0
1	14759	2888	1
1	14759	2888	0
1	14777	2890	1
1	14777	2890	0
1	14833	2903	1
1	14833	2903	0
1	14952	2930	1
1	14952	2930	0
1	14970	2933	1
1	14970	2933	0
1	14988	2937	1
1	14988	2937	0
1	15050	2949	1
1	15050	2949	0
1	15094	2961	1
1	15094	2961	0
1	15120	2964	1
1	15120	2964	0
1	15134	2966	1
1	15134	2966	0
1	15135	2966	1
1	15144	2967	0
1	15181	2972	1
1	15181	2972	0
1	15194	2975	1
1	15194	2975	0
1	15266	2991	1
1	15266	2991	0
1	15301	2999	1
1	15301	2999	0
1	15319	3001	1
1	15319	3001	0
1	15514	3030	1
1	15514	3030	0
1	15566	3041	1
1	15566	3041	0
1	15571	3042	1
1	15573	3042	0
1	15596	3051	1
1	15596	3051	0
1	15636	3061	1
1	15636	3061	0
1	15660	3068	1
1	15660	3068	0
1	15681	3071	1
1	15681	3071	0
1	15682	3071	1
1	15695	3074	2
1	15713	3077	1
1	15723	3078	0
1	15746	3083	1
1	15746	3083	0
1	15757	3086	1
1	15757	3086	0
1	15762	3087	1
1	15763	3087	2
1	15766	3087	1
1	15773	3088	2
1	15777	3088	1
1	15782	3089	2
1	15783	3089	3
1	15785	3089	2
1	15791	3090	1
1	15797	3091	0
1	15863	3104	1
1	15863	3104	0
1	15868	3105	1
1	15870	3105	0
1	15879	3107	1
1	15879	3107	0
1	15884	3108	1
1	15888	3108	0
1	15907	3111	1
1	15907	3111	0
1	15929	3115	1
1	15929	3115	0
1	15939	3116	1
1	15941	3116	0
1	15971	3123	1
1	15971	3123	0
1	16013	3130	1
1	16013	3130	0
1	16014	3130	1
1	16022	3131	0