version 3
run Experimentos-47-20260508-20:05:38-28066
attr configname Experimentos
attr datetime 20260508-20:05:38
attr datetimef 20260508-200538
attr experiment Experimentos
attr inifile TwoQueues.ini
attr iterationvars "$p=0.6, $q=0.2, $Y=10, $m=4"
attr iterationvarsd p=0.6/q=0.2/Y=10/m=4
attr iterationvarsf p=0.6,q=0.2,Y=10,m=4-
attr measurement "$p=0.6, $q=0.2, $Y=10, $m=4"
attr network TwoQueues
attr processid 28066
attr repetition 7
attr replication #7
attr resultdir results
attr runnumber 47
attr seedset 47
itervar Y 10
itervar m 4
itervar p 0.6
itervar q 0.2
config description "Barrido completo de parámetros Proyecto 12"
config **.source1.p 0.6
config **.source1.q 0.2
config **.source2.p 0.6
config **.source2.q 0.2
config **.serverWithMaintenance.Y 10
config **.serverWithMaintenance.m 4
config network TwoQueues
config cpu-time-limit 5000s
config sim-time-limit 5000s
config warmup-period 400s
config repeat 20
config output-scalar-file results/Experimentos-p=0.6,q=0.2,Y=10,m=4--#7.sca
config output-vector-file results/Experimentos-p=0.6,q=0.2,Y=10,m=4--#7.vec
config **.vector-recording true

vector 0 TwoQueues.serverWithMaintenance residenceTime2:vector ETV
attr recordingmode vector
attr source delay2
attr title "Residence Time Class 2"
vector 1 TwoQueues.queue2 queueLengthStats:vector ETV
attr recordingmode vector
attr source qlen
attr title "Average Queue Length"
vector 2 TwoQueues.queue1 queueLengthStats:vector ETV
attr recordingmode vector
attr source qlen
attr title "Average Queue Length"
vector 3 TwoQueues.server residenceTime1:vector ETV
attr recordingmode vector
attr source delay1
attr title "Residence Time Class 1"
vector 4 TwoQueues.server throughputStats1:vector ETV
attr recordingmode vector
attr source throughput1
attr title "Throughput Class 1"
0	2767	401	1
0	2789	403	1
0	2807	405	1
0	2832	408	1
0	2850	410	1
0	2860	411	2
0	2871	412	1
0	2915	419	1
0	2921	420	2
0	2939	424	1
0	2966	429	1
0	2976	430	1
0	3061	444	1
0	3095	452	1
0	3183	465	1
0	3254	478	1
0	3281	485	1
0	3309	491	1
0	3411	511	1
0	3431	513	1
0	3450	515	1
0	3461	516	1
0	3472	517	1
0	3518	523	1
0	3566	529	1
0	3577	530	1
0	3622	536	1
0	3667	542	1
0	3723	553	1
0	3734	554	1
0	3752	556	1
0	3803	565	1
0	3817	567	1
0	3828	568	1
0	3858	575	1
0	3906	582	1
0	3932	585	1
0	3980	590	3
0	3990	591	2
0	4021	595	1
0	4032	596	2
0	4082	603	1
0	4096	604	1
0	4107	605	1
0	4150	613	1
0	4197	619	1
0	4207	620	2
0	4240	625	4
0	4261	629	1
0	4284	632	1
0	4291	633	1
0	4319	638	1
0	4405	654	1
0	4419	657	1
0	4439	660	1
0	4450	661	1
0	4504	668	1
0	4538	673	2
0	4547	674	2
0	4645	691	1
0	4657	692	1
0	4669	693	1
0	4712	699	1
0	4723	700	2
0	4760	705	1
0	4853	721	1
0	4868	725	1
0	4919	736	1
0	4988	747	1
0	5004	750	1
0	5041	755	1
0	5053	756	2
0	5062	757	2
0	5069	758	3
0	5075	759	2
0	5088	762	1
0	5107	765	1
0	5161	775	1
0	5187	778	1
0	5207	780	1
0	5259	787	1
0	5277	789	1
0	5288	790	2
0	5299	791	3
0	5309	792	3
0	5354	799	1
0	5365	800	1
0	5390	805	3
0	5402	806	2
0	5414	807	1
0	5438	810	1
0	5463	813	1
0	5549	826	1
0	5578	832	1
0	5608	837	1
0	5628	842	1
0	5660	848	1
0	5695	853	4
0	5713	855	1
0	5777	865	1
0	5790	867	1
0	5800	868	2
0	5823	874	1
0	5832	876	1
0	5839	877	1
0	5857	879	1
0	5871	880	1
0	5910	885	1
0	5936	888	1
0	5965	892	1
0	5990	895	1
0	6092	909	1
0	6103	910	1
0	6127	914	1
0	6154	917	1
0	6164	918	2
0	6185	921	1
0	6219	926	2
0	6256	933	1
0	6340	946	1
0	6405	955	1
0	6442	965	1
0	6469	968	1
0	6481	969	1
0	6522	975	1
0	6562	982	1
0	6574	983	2
0	6612	988	6
0	6621	989	6
0	6678	999	1
0	6690	1001	1
0	6698	1002	1
0	6704	1003	2
0	6762	1011	1
0	6775	1012	2
0	6804	1016	1
0	6835	1020	1
0	6864	1025	4
0	6871	1026	1
0	6894	1029	1
0	6907	1030	1
0	6916	1031	2
0	6962	1040	1
0	6975	1041	1
0	6987	1042	2
0	7005	1044	1
0	7014	1045	2
0	7066	1056	1
0	7125	1066	1
0	7134	1067	2
0	7144	1068	1
0	7177	1074	1
0	7246	1087	1
0	7307	1099	1
0	7331	1102	1
0	7343	1104	1
0	7363	1109	1
0	7402	1114	5
0	7436	1118	1
0	7455	1120	1
0	7510	1128	1
0	7564	1135	1
0	7575	1136	2
0	7646	1150	1
0	7653	1151	1
0	7683	1158	1
0	7690	1159	2
0	7733	1164	6
0	7752	1166	1
0	7791	1171	1
0	7803	1172	2
0	7813	1173	3
0	7823	1174	3
0	7836	1175	1
0	7845	1176	2
0	7856	1177	3
0	7888	1181	1
0	7962	1196	1
0	8014	1203	1
0	8021	1204	1
0	8040	1207	1
0	8088	1215	1
0	8138	1224	1
0	8196	1234	1
0	8240	1241	1
0	8257	1247	1
0	8283	1253	1
0	8328	1258	4
0	8388	1266	1
0	8421	1270	1
0	8434	1271	2
0	8483	1278	1
0	8518	1283	1
0	8531	1284	1
0	8551	1286	1
0	8592	1291	1
0	8611	1293	1
0	8650	1300	1
0	8671	1307	1
0	8723	1315	1
0	8741	1317	1
0	8773	1324	1
0	8825	1334	1
0	8836	1335	1
0	8842	1336	2
0	8849	1337	1
0	8887	1345	1
0	8924	1350	1
0	8935	1351	1
0	8945	1352	1
0	8973	1357	1
0	8986	1358	1
0	9027	1364	1
0	9089	1373	1
0	9117	1378	1
0	9127	1379	1
0	9138	1381	1
0	9161	1386	4
0	9167	1387	5
0	9175	1388	3
0	9184	1389	2
0	9192	1390	3
0	9235	1400	1
0	9257	1405	1
0	9307	1414	1
0	9345	1420	1
0	9420	1435	1
0	9449	1440	3
0	9455	1441	3
0	9462	1442	1
0	9469	1443	1
0	9478	1445	1
0	9512	1452	1
0	9519	1453	1
0	9560	1460	1
0	9577	1462	1
0	9634	1471	1
0	9676	1476	5
0	9686	1477	3
0	9702	1479	1
0	9753	1488	1
0	9797	1499	1
0	9804	1500	1
0	9833	1507	1
0	9844	1509	1
0	9910	1520	1
0	9919	1521	2
0	9958	1526	5
0	9964	1527	5
0	9973	1529	1
0	10021	1538	1
0	10043	1542	1
0	10130	1554	1
0	10152	1557	1
0	10163	1558	2
0	10187	1562	1
0	10203	1564	1
0	10231	1569	2
0	10252	1573	1
0	10259	1574	1
0	10266	1575	1
0	10285	1578	1
0	10365	1590	1
0	10421	1598	1
0	10475	1607	1
0	10502	1613	1
0	10518	1616	1
0	10550	1621	2
0	10560	1622	2
0	10568	1623	2
0	10642	1636	1
0	10653	1637	2
0	10667	1639	1
0	10686	1641	1
0	10704	1645	1
0	10718	1648	1
0	10735	1654	1
0	10766	1659	1
0	10781	1660	1
0	10843	1670	1
0	10910	1681	1
0	10949	1687	1
0	10979	1690	1
0	10989	1691	2
0	11001	1692	1
0	11023	1694	1
0	11248	1737	1
0	11285	1742	3
0	11316	1746	1
0	11341	1750	1
0	11378	1762	1
0	11389	1763	1
0	11400	1764	1
0	11429	1769	1
0	11450	1771	1
0	11476	1775	1
0	11493	1777	1
0	11580	1789	1
0	11621	1794	1
0	11633	1795	1
0	11646	1796	1
0	11655	1797	2
0	11664	1798	3
0	11677	1801	1
0	11705	1805	1
0	11725	1809	1
0	11737	1810	1
0	11780	1816	1
0	11818	1821	1
0	11848	1825	1
0	11860	1826	1
0	11958	1840	1
0	12001	1846	1
0	12028	1850	1
0	12047	1853	1
0	12058	1856	1
0	12075	1860	1
0	12104	1865	6
0	12111	1866	5
0	12117	1867	4
0	12127	1868	3
0	12165	1874	1
0	12212	1885	1
0	12229	1890	1
0	12248	1893	1
0	12255	1894	1
0	12370	1911	1
0	12409	1916	3
0	12449	1922	1
0	12489	1929	1
0	12547	1939	1
0	12557	1940	2
0	12606	1946	1
0	12620	1947	1
0	12630	1948	2
0	12653	1951	1
0	12664	1952	1
0	12729	1964	1
0	12741	1965	1
0	12758	1967	1
0	12788	1972	1
0	12795	1973	1
0	12812	1977	1
0	12825	1978	1
0	12863	1983	1
0	12895	1988	1
0	13002	2009	1
0	13037	2014	5
0	13048	2015	2
0	13115	2030	1
0	13122	2031	1
0	13189	2047	1
0	13214	2052	1
0	13226	2053	1
0	13270	2059	1
0	13280	2060	1
0	13315	2065	1
0	13355	2070	6
0	13364	2071	4
0	13370	2072	3
0	13383	2076	1
0	13399	2079	1
0	13436	2086	1
0	13445	2087	2
0	13455	2088	1
0	13480	2096	1
0	13490	2097	1
0	13543	2104	1
0	13554	2105	2
0	13564	2106	3
0	13637	2116	1
0	13646	2117	2
0	13663	2120	1
0	13710	2126	1
0	13720	2127	2
0	13746	2130	1
0	13756	2131	2
0	13795	2136	2
0	13820	2142	1
0	13874	2149	1
0	13923	2160	1
0	13932	2161	1
0	13938	2162	2
0	13944	2163	3
0	13993	2174	1
0	14005	2176	1
0	14047	2182	1
0	14085	2187	5
0	14113	2192	1
0	14188	2203	1
0	14199	2204	1
0	14221	2207	1
0	14250	2212	1
0	14262	2213	1
0	14273	2214	1
0	14279	2215	2
0	14443	2242	1
0	14471	2247	1
0	14487	2249	1
0	14518	2253	1
0	14528	2254	1
0	14539	2256	1
0	14572	2261	1
0	14587	2263	1
0	14594	2264	2
0	14606	2265	2
0	14616	2266	2
0	14658	2271	4
0	14669	2272	3
0	14680	2273	2
0	14690	2274	2
0	14700	2275	2
0	14711	2276	1
0	14755	2286	1
0	14796	2291	1
0	14806	2292	2
0	14812	2293	2
0	14853	2298	1
0	14864	2299	1
0	14902	2304	1
0	14926	2307	1
0	14938	2308	1
0	14948	2309	2
0	15091	2330	1
0	15124	2334	1
0	15141	2336	1
0	15162	2340	1
0	15185	2345	2
0	15202	2347	1
0	15214	2350	1
0	15220	2351	2
0	15241	2356	1
0	15251	2357	2
0	15315	2367	1
0	15362	2373	1
0	15415	2380	1
0	15493	2390	1
0	15556	2399	1
0	15568	2400	1
0	15581	2401	1
0	15592	2402	1
0	15675	2414	1
0	15721	2425	1
0	15740	2427	1
0	15752	2429	1
0	15782	2434	1
0	15805	2437	1
0	15843	2442	2
0	15920	2455	1
0	15948	2462	1
0	16010	2471	1
0	16024	2472	2
0	16071	2478	1
0	16120	2486	1
0	16132	2487	2
0	16141	2488	2
0	16158	2493	1
0	16184	2498	5
0	16234	2504	1
0	16379	2525	1
0	16396	2527	1
0	16474	2539	1
0	16481	2540	1
0	16502	2544	1
0	16604	2558	1
0	16630	2561	1
0	16649	2563	1
0	16670	2568	2
0	16676	2569	3
0	16686	2570	3
0	16708	2573	1
0	16741	2582	1
0	16748	2583	1
0	16773	2586	1
0	16812	2592	1
0	16818	2593	2
0	16883	2603	1
0	16901	2608	5
0	16907	2609	4
0	16913	2610	5
0	16965	2621	1
0	17073	2636	1
0	17199	2663	1
0	17263	2676	1
0	17285	2680	1
0	17304	2682	1
0	17334	2686	1
0	17375	2691	5
0	17385	2692	2
0	17437	2698	1
0	17448	2699	1
0	17547	2713	1
0	17592	2719	1
0	17703	2735	1
0	17776	2745	1
0	17802	2752	1
0	17884	2765	1
0	17918	2770	5
0	17927	2771	3
0	17947	2775	1
0	17978	2780	1
0	18027	2787	1
0	18073	2794	1
0	18153	2807	1
0	18163	2808	2
0	18175	2809	1
0	18206	2813	1
0	18227	2818	3
0	18247	2823	1
0	18284	2828	1
0	18305	2832	1
0	18333	2836	1
0	18368	2845	1
0	18395	2848	1
0	18404	2849	2
0	18420	2852	1
0	18526	2875	1
0	18601	2887	1
0	18646	2896	1
0	18695	2903	1
0	18753	2911	1
0	18764	2912	1
0	18790	2915	1
0	18834	2922	1
0	18846	2923	1
0	18862	2925	1
0	18904	2932	1
0	18946	2937	5
0	18956	2938	4
0	18989	2943	1
0	18999	2944	1
0	19014	2947	1
0	19028	2950	1
0	19095	2961	1
0	19104	2963	1
0	19164	2974	1
0	19200	2978	1
0	19238	2983	2
0	19300	2993	1
0	19334	3000	1
0	19352	3004	1
0	19359	3005	1
0	19421	3014	1
0	19447	3017	1
0	19503	3026	1
0	19514	3027	1
0	19520	3028	2
0	19553	3033	5
0	19563	3034	4
0	19703	3054	1
0	19768	3068	1
0	19779	3069	1
0	19785	3070	2
0	19803	3073	1
0	19858	3084	1
0	19882	3092	1
0	19911	3098	1
0	19942	3103	5
0	19952	3104	5
0	20034	3118	1
0	20083	3125	1
0	20093	3126	2
0	20164	3137	1
0	20224	3146	1
0	20236	3147	2
0	20275	3152	1
0	20331	3159	1
0	20369	3164	3
0	20387	3166	1
0	20412	3170	1
0	20428	3173	1
0	20435	3174	1
0	20446	3175	1
0	20478	3179	1
0	20501	3182	1
0	20535	3187	1
0	20567	3191	1
0	20608	3196	2
0	20620	3197	3
0	20632	3198	1
0	20650	3201	1
0	20672	3207	1
0	20718	3217	1
0	20736	3219	1
0	20773	3224	1
0	20783	3225	1
0	20792	3227	1
0	20825	3233	1
0	20841	3236	1
0	20880	3244	1
0	20926	3251	1
0	20949	3254	1
0	20970	3256	1
0	21018	3265	1
0	21028	3266	2
0	21094	3277	1
0	21153	3285	1
0	21189	3291	1
0	21199	3292	1
0	21218	3296	1
0	21224	3297	2
0	21245	3300	1
0	21301	3313	1
0	21319	3317	1
0	21344	3320	1
0	21368	3323	1
0	21380	3325	1
0	21416	3330	3
0	21436	3335	1
0	21475	3342	1
0	21484	3344	1
0	21502	3347	1
0	21514	3349	1
0	21525	3350	1
0	21539	3351	2
0	21594	3358	1
0	21657	3369	1
0	21685	3374	2
0	21740	3384	1
0	21749	3386	1
0	21774	3391	1
0	21800	3395	1
0	21819	3397	1
0	21873	3404	1
0	21885	3405	1
0	21896	3406	1
0	21908	3408	1
0	21934	3413	1
0	21963	3418	1
0	21979	3419	2
0	21991	3420	2
0	22002	3421	3
0	22015	3422	3
0	22092	3433	1
0	22135	3439	1
0	22180	3445	1
0	22216	3452	1
0	22248	3457	1
0	22347	3473	1
0	22403	3480	1
0	22499	3494	1
0	22537	3499	1
0	22590	3507	1
0	22596	3508	2
0	22602	3509	3
0	22609	3510	1
0	22616	3511	1
0	22660	3518	1
0	22718	3529	1
0	22779	3538	1
0	22790	3539	1
0	22852	3550	1
0	22871	3552	1
0	22901	3558	1
0	22919	3562	1
0	22975	3571	1
0	23083	3590	1
0	23142	3599	1
0	23169	3604	1
0	23180	3606	1
0	23220	3611	1
0	23232	3613	1
0	23242	3614	1
0	23336	3631	1
0	23369	3635	1
0	23390	3637	1
0	23442	3646	1
0	23477	3651	1
0	23488	3652	2
0	23502	3655	1
0	23514	3656	1
0	23542	3660	1
0	23571	3663	1
0	23582	3664	2
0	23613	3668	1
0	23645	3672	1
0	23656	3673	1
0	23690	3678	4
0	23696	3679	3
0	23707	3681	1
0	23753	3689	1
0	23767	3691	1
0	23791	3699	1
0	23809	3701	1
0	23826	3703	1
0	23838	3705	1
0	23886	3714	1
0	23928	3721	1
0	23960	3725	1
0	23977	3727	1
0	23989	3728	1
0	24036	3734	1
0	24057	3736	1
0	24152	3750	1
0	24161	3751	2
0	24204	3762	1
0	24210	3763	2
0	24231	3768	4
0	24407	3806	1
0	24414	3807	1
0	24455	3814	1
0	24476	3818	1
0	24546	3829	1
0	24596	3836	1
0	24627	3840	1
0	24640	3841	1
0	24694	3848	1
0	24732	3853	3
0	24744	3854	3
0	24754	3855	4
0	24774	3859	1
0	24784	3860	1
0	24895	3876	1
0	24915	3878	1
0	24968	3890	1
0	25005	3897	1
0	25014	3899	1
0	25043	3904	2
0	25052	3905	2
0	25075	3909	1
0	25090	3910	1
0	25101	3911	1
0	25222	3928	1
0	25303	3940	1
0	25309	3941	2
0	25338	3948	1
0	25346	3949	1
0	25368	3954	6
0	25374	3955	4
0	25384	3956	4
0	25413	3960	1
0	25424	3961	2
0	25463	3966	1
0	25489	3970	1
0	25498	3971	2
0	25588	3995	1
0	25619	3999	1
0	25656	4004	6
0	25667	4005	2
0	25678	4006	2
0	25695	4009	1
0	25708	4010	1
0	25718	4011	2
0	25747	4018	1
0	25760	4020	1
0	25770	4021	2
0	25803	4027	1
0	25851	4037	1
0	25895	4042	1
0	25968	4053	1
0	26051	4066	1
0	26129	4082	1
0	26176	4089	1
0	26201	4093	1
0	26208	4094	1
0	26263	4104	1
0	26274	4107	1
0	26303	4115	1
0	26378	4127	1
0	26438	4136	1
0	26473	4146	1
0	26496	4151	1
0	26508	4152	2
0	26551	4157	1
0	26620	4167	1
0	26648	4175	1
0	26696	4181	1
0	26758	4193	1
0	26769	4194	1
0	26811	4202	1
0	26835	4205	1
0	26884	4211	1
0	26925	4216	1
0	26936	4217	1
0	26992	4224	1
0	27083	4237	1
0	27135	4248	1
0	27174	4253	1
0	27276	4273	1
0	27289	4274	1
0	27300	4275	1
0	27356	4281	1
0	27375	4283	1
0	27385	4284	2
0	27396	4285	1
0	27489	4298	1
0	27517	4302	1
0	27562	4312	1
0	27646	4329	1
0	27657	4330	1
0	27668	4331	1
0	27706	4337	1
0	27791	4351	1
0	27816	4354	1
0	27843	4358	1
0	27854	4359	1
0	27906	4366	1
0	27944	4371	4
0	28001	4380	1
0	28014	4381	1
0	28039	4384	1
0	28143	4402	1
0	28157	4403	1
0	28176	4405	1
0	28187	4406	1
0	28307	4428	1
0	28313	4429	2
0	28344	4434	3
0	28385	4439	1
0	28403	4441	1
0	28435	4445	1
0	28446	4446	1
0	28479	4454	1
0	28525	4467	1
0	28562	4472	1
0	28580	4474	1
0	28591	4475	1
0	28632	4480	5
0	28642	4481	4
0	28654	4482	4
0	28671	4484	1
0	28681	4485	2
0	28740	4495	1
0	28779	4502	1
0	28800	4504	1
0	28831	4508	1
0	28872	4514	1
0	28913	4524	1
0	28965	4537	1
0	28976	4538	1
0	28995	4541	1
0	29002	4542	1
0	29013	4545	1
0	29038	4549	1
0	29048	4550	1
0	29059	4551	1
0	29085	4556	1
0	29110	4561	3
0	29127	4563	1
0	29143	4567	1
0	29153	4568	1
0	29242	4584	1
0	29439	4615	1
0	29471	4621	1
0	29503	4627	1
0	29514	4628	1
0	29527	4629	1
0	29567	4634	3
0	29576	4635	4
0	29582	4636	3
0	29600	4639	1
0	29613	4640	1
0	29649	4647	1
0	29684	4652	1
0	29694	4653	1
0	29742	4659	1
0	29773	4663	1
0	29933	4691	1
0	29944	4694	1
0	30030	4707	1
0	30038	4708	1
0	30044	4709	2
0	30060	4712	1
0	30087	4719	1
0	30098	4720	1
0	30118	4722	1
0	30127	4723	2
0	30150	4729	1
0	30170	4731	1
0	30223	4738	1
0	30247	4741	1
0	30291	4747	1
0	30302	4748	2
0	30312	4749	2
0	30409	4766	1
0	30420	4769	1
0	30430	4770	1
0	30479	4778	1
0	30490	4781	1
0	30513	4784	1
0	30525	4785	1
0	30545	4790	1
0	30555	4791	1
0	30566	4794	1
0	30577	4795	1
0	30626	4804	1
0	30652	4809	1
0	30690	4814	6
0	30701	4815	6
0	30717	4819	1
0	30751	4825	1
0	30934	4860	1
0	30945	4861	2
0	30957	4862	3
0	30968	4863	3
0	30984	4865	1
0	30995	4867	1
0	31031	4872	5
0	31037	4873	5
0	31047	4874	3
0	31079	4878	1
0	31088	4879	2
0	31126	4887	1
0	31140	4890	1
0	31161	4893	1
0	31175	4895	1
0	31211	4899	1
0	31249	4904	6
0	31260	4905	5
0	31270	4906	2
0	31292	4909	1
0	31303	4910	2
0	31336	4915	1
0	31348	4916	1
0	31358	4917	2
0	31374	4919	1
0	31394	4924	1
0	31433	4932	1
0	31491	4945	1
0	31502	4946	1
0	31518	4948	1
0	31536	4951	1
0	31632	4969	1
0	31680	4975	1
0	31771	4992	1
0	31781	4993	1
0	31793	4995	1
0	31827	5000	6
1	2758	400	1
1	2758	400	0
1	2778	402	1
1	2778	402	0
1	2800	404	1
1	2800	404	0
1	2824	407	1
1	2824	407	0
1	2842	409	1
1	2842	409	0
1	2843	409	1
1	2853	410	0
1	2862	411	1
1	2864	411	0
1	2910	418	1
1	2910	418	0
1	2911	418	1
1	2917	419	0
1	2935	423	1
1	2935	423	0
1	2960	428	1
1	2960	428	0
1	2968	429	1
1	2970	429	0
1	3054	443	1
1	3054	443	0
1	3089	451	1
1	3089	451	0
1	3175	464	1
1	3175	464	0
1	3246	477	1
1	3246	477	0
1	3277	484	1
1	3277	484	0
1	3305	490	1
1	3305	490	0
1	3401	510	1
1	3401	510	0
1	3424	512	1
1	3424	512	0
1	3442	514	1
1	3442	514	0
1	3452	515	1
1	3454	515	0
1	3463	516	1
1	3465	516	0
1	3511	522	1
1	3511	522	0
1	3559	528	1
1	3559	528	0
1	3568	529	1
1	3570	529	0
1	3614	535	1
1	3614	535	0
1	3661	541	1
1	3661	541	0
1	3715	552	1
1	3715	552	0
1	3725	553	1
1	3727	553	0
1	3745	555	1
1	3745	555	0
1	3799	564	1
1	3799	564	0
1	3811	566	1
1	3811	566	0
1	3818	567	1
1	3822	567	0
1	3852	574	1
1	3852	574	0
1	3898	581	1
1	3898	581	0
1	3923	584	1
1	3923	584	0
1	3958	587	1
1	3972	589	0
1	3973	589	1
1	3983	590	0
1	4013	594	1
1	4013	594	0
1	4014	594	1
1	4025	595	0
1	4075	602	1
1	4075	602	0
1	4084	603	1
1	4089	603	0
1	4098	604	1
1	4100	604	0
1	4146	612	1
1	4146	612	0
1	4189	618	1
1	4189	618	0
1	4190	618	1
1	4200	619	0
1	4217	621	1
1	4236	624	0
1	4253	628	1
1	4253	628	0
1	4278	631	1
1	4278	631	0
1	4285	632	1
1	4287	632	0
1	4311	637	1
1	4311	637	0
1	4398	653	1
1	4398	653	0
1	4415	656	1
1	4415	656	0
1	4429	659	1
1	4429	659	0
1	4441	660	1
1	4443	660	0
1	4497	667	1
1	4497	667	0
1	4527	671	1
1	4533	672	0
1	4534	672	1
1	4541	673	0
1	4638	690	1
1	4638	690	0
1	4647	691	1
1	4650	691	0
1	4659	692	1
1	4662	692	0
1	4704	698	1
1	4704	698	0
1	4705	698	1
1	4716	699	0
1	4753	704	1
1	4753	704	0
1	4847	720	1
1	4847	720	0
1	4862	724	1
1	4862	724	0
1	4915	735	1
1	4915	735	0
1	4980	746	1
1	4980	746	0
1	4998	749	1
1	4998	749	0
1	5032	754	1
1	5032	754	0
1	5033	754	1
1	5043	755	2
1	5044	755	3
1	5046	755	2
1	5056	756	1
1	5063	757	2
1	5065	757	1
1	5071	758	0
1	5082	761	1
1	5082	761	0
1	5101	764	1
1	5101	764	0
1	5154	774	1
1	5154	774	0
1	5180	777	1
1	5180	777	0
1	5197	779	1
1	5197	779	0
1	5252	786	1
1	5252	786	0
1	5267	788	1
1	5267	788	0
1	5268	788	1
1	5269	788	2
1	5279	789	3
1	5281	789	2
1	5292	790	1
1	5302	791	0
1	5347	798	1
1	5347	798	0
1	5356	799	1
1	5358	799	0
1	5379	802	1
1	5385	804	0
1	5386	804	1
1	5396	805	0
1	5403	806	1
1	5408	806	0
1	5430	809	1
1	5430	809	0
1	5456	812	1
1	5456	812	0
1	5541	825	1
1	5541	825	0
1	5574	831	1
1	5574	831	0
1	5602	836	1
1	5602	836	0
1	5624	841	1
1	5624	841	0
1	5654	847	1
1	5654	847	0
1	5664	849	1
1	5688	852	0
1	5705	854	1
1	5705	854	0
1	5771	864	1
1	5771	864	0
1	5785	866	1
1	5785	866	0
1	5786	866	1
1	5794	867	0
1	5819	873	1
1	5819	873	0
1	5828	875	1
1	5828	875	0
1	5833	876	1
1	5835	876	0
1	5848	878	1
1	5848	878	0
1	5859	879	1
1	5864	879	0
1	5900	884	1
1	5900	884	0
1	5927	887	1
1	5927	887	0
1	5959	891	1
1	5959	891	0
1	5982	894	1
1	5982	894	0
1	6084	908	1
1	6084	908	0
1	6094	909	1
1	6096	909	0
1	6119	913	1
1	6119	913	0
1	6145	916	1
1	6145	916	0
1	6146	916	1
1	6157	917	0
1	6177	920	1
1	6177	920	0
1	6206	924	1
1	6213	925	0
1	6247	932	1
1	6247	932	0
1	6332	945	1
1	6332	945	0
1	6397	954	1
1	6397	954	0
1	6438	964	1
1	6438	964	0
1	6461	967	1
1	6461	967	0
1	6471	968	1
1	6474	968	0
1	6516	974	1
1	6516	974	0
1	6555	981	1
1	6555	981	0
1	6556	981	1
1	6563	982	2
1	6568	982	1
1	6575	983	2
1	6605	987	1
1	6615	988	0
1	6671	998	1
1	6671	998	0
1	6686	1000	1
1	6686	1000	0
1	6691	1001	1
1	6692	1001	2
1	6694	1001	1
1	6700	1002	0
1	6753	1010	1
1	6753	1010	0
1	6754	1010	1
1	6768	1011	0
1	6797	1015	1
1	6797	1015	0
1	6828	1019	1
1	6828	1019	0
1	6845	1021	1
1	6860	1024	0
1	6865	1025	1
1	6867	1025	0
1	6887	1028	1
1	6887	1028	0
1	6896	1029	1
1	6897	1029	2
1	6900	1029	1
1	6910	1030	0
1	6955	1039	1
1	6955	1039	0
1	6964	1040	1
1	6965	1040	2
1	6968	1040	1
1	6980	1041	0
1	6997	1043	1
1	6997	1043	0
1	6998	1043	1
1	7008	1044	0
1	7058	1055	1
1	7058	1055	0
1	7118	1065	1
1	7118	1065	0
1	7119	1065	1
1	7128	1066	0
1	7135	1067	1
1	7138	1067	0
1	7169	1073	1
1	7169	1073	0
1	7240	1086	1
1	7240	1086	0
1	7300	1098	1
1	7300	1098	0
1	7323	1101	1
1	7323	1101	0
1	7339	1103	1
1	7339	1103	0
1	7359	1108	1
1	7359	1108	0
1	7364	1109	1
1	7395	1113	0
1	7427	1117	1
1	7427	1117	0
1	7448	1119	1
1	7448	1119	0
1	7501	1127	1
1	7501	1127	0
1	7556	1134	1
1	7556	1134	0
1	7557	1134	1
1	7568	1135	0
1	7640	1149	1
1	7640	1149	0
1	7647	1150	1
1	7649	1150	0
1	7678	1157	1
1	7678	1157	0
1	7679	1157	1
1	7684	1158	2
1	7686	1158	1
1	7726	1163	0
1	7743	1165	1
1	7743	1165	0
1	7782	1170	1
1	7782	1170	0
1	7783	1170	1
1	7784	1170	2
1	7793	1171	3
1	7796	1171	2
1	7806	1172	1
1	7816	1173	0
1	7825	1174	1
1	7826	1174	2
1	7827	1174	3
1	7829	1174	2
1	7839	1175	1
1	7850	1176	0
1	7880	1180	1
1	7880	1180	0
1	7956	1195	1
1	7956	1195	0
1	8008	1202	1
1	8008	1202	0
1	8015	1203	1
1	8017	1203	0
1	8033	1206	1
1	8033	1206	0
1	8084	1214	1
1	8084	1214	0
1	8132	1223	1
1	8132	1223	0
1	8192	1233	1
1	8192	1233	0
1	8234	1240	1
1	8234	1240	0
1	8253	1246	1
1	8253	1246	0
1	8274	1252	1
1	8274	1252	0
1	8294	1254	1
1	8321	1257	0
1	8381	1265	1
1	8381	1265	0
1	8413	1269	1
1	8413	1269	0
1	8414	1269	1
1	8427	1270	0
1	8476	1277	1
1	8476	1277	0
1	8511	1282	1
1	8511	1282	0
1	8520	1283	1
1	8524	1283	0
1	8543	1285	1
1	8543	1285	0
1	8584	1290	1
1	8584	1290	0
1	8603	1292	1
1	8603	1292	0
1	8646	1299	1
1	8646	1299	0
1	8665	1306	1
1	8665	1306	0
1	8716	1314	1
1	8716	1314	0
1	8734	1316	1
1	8734	1316	0
1	8769	1323	1
1	8769	1323	0
1	8818	1333	1
1	8818	1333	0
1	8827	1334	1
1	8828	1334	2
1	8830	1334	1
1	8838	1335	0
1	8843	1336	1
1	8845	1336	0
1	8879	1344	1
1	8879	1344	0
1	8917	1349	1
1	8917	1349	0
1	8926	1350	1
1	8928	1350	0
1	8937	1351	1
1	8939	1351	0
1	8966	1356	1
1	8966	1356	0
1	8975	1357	1
1	8979	1357	0
1	9018	1363	1
1	9018	1363	0
1	9082	1372	1
1	9082	1372	0
1	9111	1377	1
1	9111	1377	0
1	9118	1378	1
1	9121	1378	0
1	9134	1380	1
1	9134	1380	0
1	9145	1382	1
1	9146	1382	2
1	9156	1385	1
1	9157	1385	2
1	9163	1386	1
1	9168	1387	2
1	9169	1387	3
1	9171	1387	2
1	9178	1388	1
1	9188	1389	0
1	9227	1399	1
1	9227	1399	0
1	9253	1404	1
1	9253	1404	0
1	9301	1413	1
1	9301	1413	0
1	9338	1419	1
1	9338	1419	0
1	9413	1434	1
1	9413	1434	0
1	9436	1437	1
1	9441	1438	2
1	9445	1439	1
1	9451	1440	0
1	9456	1441	1
1	9458	1441	0
1	9463	1442	1
1	9465	1442	0
1	9474	1444	1
1	9474	1444	0
1	9508	1451	1
1	9508	1451	0
1	9513	1452	1
1	9515	1452	0
1	9553	1459	1
1	9553	1459	0
1	9571	1461	1
1	9571	1461	0
1	9626	1470	1
1	9626	1470	0
1	9636	1471	1
1	9659	1474	2
1	9669	1475	1
1	9679	1476	0
1	9696	1478	1
1	9696	1478	0
1	9744	1487	1
1	9744	1487	0
1	9793	1498	1
1	9793	1498	0
1	9798	1499	1
1	9800	1499	0
1	9829	1506	1
1	9829	1506	0
1	9838	1508	1
1	9838	1508	0
1	9905	1519	1
1	9905	1519	0
1	9906	1519	1
1	9913	1520	0
1	9920	1521	1
1	9929	1522	2
1	9952	1525	1
1	9960	1526	0
1	9969	1528	1
1	9969	1528	0
1	10015	1537	1
1	10015	1537	0
1	10033	1541	1
1	10033	1541	0
1	10123	1553	1
1	10123	1553	0
1	10144	1556	1
1	10144	1556	0
1	10145	1556	1
1	10156	1557	0
1	10180	1561	1
1	10180	1561	0
1	10197	1563	1
1	10197	1563	0
1	10221	1567	1
1	10225	1568	0
1	10248	1572	1
1	10248	1572	0
1	10253	1573	1
1	10255	1573	0
1	10260	1574	1
1	10262	1574	0
1	10278	1577	1
1	10278	1577	0
1	10358	1589	1
1	10358	1589	0
1	10413	1597	1
1	10413	1597	0
1	10471	1606	1
1	10471	1606	0
1	10498	1612	1
1	10498	1612	0
1	10514	1615	1
1	10514	1615	0
1	10535	1619	1
1	10543	1620	0
1	10544	1620	1
1	10551	1621	2
1	10554	1621	1
1	10564	1622	0
1	10635	1635	1
1	10635	1635	0
1	10636	1635	1
1	10646	1636	0
1	10661	1638	1
1	10661	1638	0
1	10679	1640	1
1	10679	1640	0
1	10698	1644	1
1	10698	1644	0
1	10714	1647	1
1	10714	1647	0
1	10731	1653	1
1	10731	1653	0
1	10760	1658	1
1	10760	1658	0
1	10767	1659	1
1	10775	1659	0
1	10839	1669	1
1	10839	1669	0
1	10900	1680	1
1	10900	1680	0
1	10941	1686	1
1	10941	1686	0
1	10970	1689	1
1	10970	1689	0
1	10971	1689	1
1	10982	1690	0
1	10991	1691	1
1	10994	1691	0
1	11016	1693	1
1	11016	1693	0
1	11237	1736	1
1	11237	1736	0
1	11263	1739	1
1	11278	1741	0
1	11310	1745	1
1	11310	1745	0
1	11333	1749	1
1	11333	1749	0
1	11374	1761	1
1	11374	1761	0
1	11379	1762	1
1	11383	1762	0
1	11390	1763	1
1	11394	1763	0
1	11421	1768	1
1	11421	1768	0
1	11440	1770	1
1	11440	1770	0
1	11470	1774	1
1	11470	1774	0
1	11487	1776	1
1	11487	1776	0
1	11573	1788	1
1	11573	1788	0
1	11614	1793	1
1	11614	1793	0
1	11623	1794	1
1	11626	1794	0
1	11635	1795	1
1	11636	1795	2
1	11637	1795	3
1	11639	1795	2
1	11649	1796	1
1	11658	1797	0
1	11673	1800	1
1	11673	1800	0
1	11699	1804	1
1	11699	1804	0
1	11718	1808	1
1	11718	1808	0
1	11727	1809	1
1	11730	1809	0
1	11773	1815	1
1	11773	1815	0
1	11812	1820	1
1	11812	1820	0
1	11841	1824	1
1	11841	1824	0
1	11850	1825	1
1	11853	1825	0
1	11949	1839	1
1	11949	1839	0
1	11994	1845	1
1	11994	1845	0
1	12020	1849	1
1	12020	1849	0
1	12041	1852	1
1	12041	1852	0
1	12054	1855	1
1	12054	1855	0
1	12067	1859	1
1	12067	1859	0
1	12068	1859	1
1	12084	1861	2
1	12094	1863	3
1	12100	1864	2
1	12105	1865	3
1	12107	1865	2
1	12113	1866	1
1	12121	1867	0
1	12159	1873	1
1	12159	1873	0
1	12208	1884	1
1	12208	1884	0
1	12223	1889	1
1	12223	1889	0
1	12244	1892	1
1	12244	1892	0
1	12249	1893	1
1	12251	1893	0
1	12362	1910	1
1	12362	1910	0
1	12386	1913	1
1	12402	1915	0
1	12442	1921	1
1	12442	1921	0
1	12480	1928	1
1	12480	1928	0
1	12542	1938	1
1	12542	1938	0
1	12543	1938	1
1	12551	1939	0
1	12599	1945	1
1	12599	1945	0
1	12608	1946	1
1	12609	1946	2
1	12613	1946	1
1	12623	1947	0
1	12646	1950	1
1	12646	1950	0
1	12655	1951	1
1	12657	1951	0
1	12723	1963	1
1	12723	1963	0
1	12731	1964	1
1	12734	1964	0
1	12752	1966	1
1	12752	1966	0
1	12782	1971	1
1	12782	1971	0
1	12789	1972	1
1	12791	1972	0
1	12804	1976	1
1	12804	1976	0
1	12814	1977	1
1	12818	1977	0
1	12855	1982	1
1	12855	1982	0
1	12889	1987	1
1	12889	1987	0
1	12998	2008	1
1	12998	2008	0
1	13003	2009	1
1	13028	2013	0
1	13029	2013	1
1	13041	2014	0
1	13111	2029	1
1	13111	2029	0
1	13116	2030	1
1	13118	2030	0
1	13185	2046	1
1	13185	2046	0
1	13208	2051	1
1	13208	2051	0
1	13215	2052	1
1	13220	2052	0
1	13262	2058	1
1	13262	2058	0
1	13272	2059	1
1	13274	2059	0
1	13305	2064	1
1	13305	2064	0
1	13306	2064	1
1	13332	2067	2
1	13347	2069	1
1	13348	2069	2
1	13358	2070	1
1	13366	2071	0
1	13379	2075	1
1	13379	2075	0
1	13393	2078	1
1	13393	2078	0
1	13428	2085	1
1	13428	2085	0
1	13429	2085	1
1	13439	2086	0
1	13446	2087	1
1	13449	2087	0
1	13474	2095	1
1	13474	2095	0
1	13482	2096	1
1	13484	2096	0
1	13534	2103	1
1	13534	2103	0
1	13535	2103	1
1	13536	2103	2
1	13547	2104	1
1	13557	2105	0
1	13629	2115	1
1	13629	2115	0
1	13630	2115	1
1	13640	2116	0
1	13653	2119	1
1	13653	2119	0
1	13702	2125	1
1	13702	2125	0
1	13703	2125	1
1	13713	2126	0
1	13737	2129	1
1	13737	2129	0
1	13738	2129	1
1	13749	2130	0
1	13781	2134	1
1	13789	2135	0
1	13813	2141	1
1	13813	2141	0
1	13866	2148	1
1	13866	2148	0
1	13919	2159	1
1	13919	2159	0
1	13924	2160	1
1	13925	2160	2
1	13926	2160	3
1	13928	2160	2
1	13934	2161	1
1	13940	2162	0
1	13987	2173	1
1	13987	2173	0
1	14001	2175	1
1	14001	2175	0
1	14039	2181	1
1	14039	2181	0
1	14049	2182	1
1	14078	2186	0
1	14109	2191	1
1	14109	2191	0
1	14180	2202	1
1	14180	2202	0
1	14190	2203	1
1	14192	2203	0
1	14212	2206	1
1	14212	2206	0
1	14243	2211	1
1	14243	2211	0
1	14252	2212	1
1	14255	2212	0
1	14264	2213	1
1	14265	2213	2
1	14267	2213	1
1	14275	2214	0
1	14437	2241	1
1	14437	2241	0
1	14463	2246	1
1	14463	2246	0
1	14479	2248	1
1	14479	2248	0
1	14511	2252	1
1	14511	2252	0
1	14520	2253	1
1	14522	2253	0
1	14533	2255	1
1	14533	2255	0
1	14566	2260	1
1	14566	2260	0
1	14580	2262	1
1	14580	2262	0
1	14581	2262	1
1	14588	2263	2
1	14590	2263	1
1	14595	2264	2
1	14600	2264	1
1	14610	2265	0
1	14624	2267	1
1	14640	2269	2
1	14649	2270	1
1	14660	2271	2
1	14662	2271	1
1	14671	2272	2
1	14673	2272	1
1	14682	2273	2
1	14684	2273	1
1	14694	2274	0
1	14701	2275	1
1	14705	2275	0
1	14749	2285	1
1	14749	2285	0
1	14787	2290	1
1	14787	2290	0
1	14788	2290	1
1	14798	2291	2
1	14800	2291	1
1	14808	2292	0
1	14845	2297	1
1	14845	2297	0
1	14855	2298	1
1	14857	2298	0
1	14895	2303	1
1	14895	2303	0
1	14917	2306	1
1	14917	2306	0
1	14928	2307	1
1	14929	2307	2
1	14931	2307	1
1	14941	2308	0
1	15083	2329	1
1	15083	2329	0
1	15117	2333	1
1	15117	2333	0
1	15134	2335	1
1	15134	2335	0
1	15156	2339	1
1	15156	2339	0
1	15173	2343	1
1	15179	2344	0
1	15196	2346	1
1	15196	2346	0
1	15209	2349	1
1	15209	2349	0
1	15210	2349	1
1	15216	2350	0
1	15234	2355	1
1	15234	2355	0
1	15235	2355	1
1	15245	2356	0
1	15308	2366	1
1	15308	2366	0
1	15355	2372	1
1	15355	2372	0
1	15408	2379	1
1	15408	2379	0
1	15485	2389	1
1	15485	2389	0
1	15549	2398	1
1	15549	2398	0
1	15558	2399	1
1	15561	2399	0
1	15570	2400	1
1	15574	2400	0
1	15583	2401	1
1	15585	2401	0
1	15668	2413	1
1	15668	2413	0
1	15713	2424	1
1	15713	2424	0
1	15733	2426	1
1	15733	2426	0
1	15748	2428	1
1	15748	2428	0
1	15776	2433	1
1	15776	2433	0
1	15797	2436	1
1	15797	2436	0
1	15825	2440	1
1	15834	2441	0
1	15914	2454	1
1	15914	2454	0
1	15940	2461	1
1	15940	2461	0
1	16002	2470	1
1	16002	2470	0
1	16003	2470	1
1	16017	2471	0
1	16064	2477	1
1	16064	2477	0
1	16113	2485	1
1	16113	2485	0
1	16114	2485	1
1	16122	2486	2
1	16125	2486	1
1	16135	2487	0
1	16152	2492	1
1	16152	2492	0
1	16160	2493	1
1	16178	2497	0
1	16226	2503	1
1	16226	2503	0
1	16372	2524	1
1	16372	2524	0
1	16389	2526	1
1	16389	2526	0
1	16470	2538	1
1	16470	2538	0
1	16475	2539	1
1	16477	2539	0
1	16495	2543	1
1	16495	2543	0
1	16596	2557	1
1	16596	2557	0
1	16623	2560	1
1	16623	2560	0
1	16641	2562	1
1	16641	2562	0
1	16660	2566	1
1	16661	2566	2
1	16665	2567	1
1	16666	2567	2
1	16672	2568	1
1	16680	2569	0
1	16702	2572	1
1	16702	2572	0
1	16737	2581	1
1	16737	2581	0
1	16742	2582	1
1	16744	2582	0
1	16765	2585	1
1	16765	2585	0
1	16807	2591	1
1	16807	2591	0
1	16808	2591	1
1	16814	2592	0
1	16877	2602	1
1	16877	2602	0
1	16884	2603	1
1	16890	2605	2
1	16891	2605	3
1	16897	2607	2
1	16903	2608	1
1	16909	2609	0
1	16959	2620	1
1	16959	2620	0
1	17066	2635	1
1	17066	2635	0
1	17195	2662	1
1	17195	2662	0
1	17254	2675	1
1	17254	2675	0
1	17279	2679	1
1	17279	2679	0
1	17297	2681	1
1	17297	2681	0
1	17326	2685	1
1	17326	2685	0
1	17336	2686	1
1	17360	2690	0
1	17361	2690	1
1	17378	2691	0
1	17428	2697	1
1	17428	2697	0
1	17439	2698	1
1	17441	2698	0
1	17540	2712	1
1	17540	2712	0
1	17585	2718	1
1	17585	2718	0
1	17695	2734	1
1	17695	2734	0
1	17769	2744	1
1	17769	2744	0
1	17794	2751	1
1	17794	2751	0
1	17878	2764	1
1	17878	2764	0
1	17885	2765	1
1	17902	2768	2
1	17910	2769	1
1	17921	2770	0
1	17940	2774	1
1	17940	2774	0
1	17971	2779	1
1	17971	2779	0
1	18020	2786	1
1	18020	2786	0
1	18067	2793	1
1	18067	2793	0
1	18144	2806	1
1	18144	2806	0
1	18145	2806	1
1	18156	2807	0
1	18165	2808	1
1	18168	2808	0
1	18200	2812	1
1	18200	2812	0
1	18212	2815	1
1	18223	2817	0
1	18241	2822	1
1	18241	2822	0
1	18276	2827	1
1	18276	2827	0
1	18299	2831	1
1	18299	2831	0
1	18327	2835	1
1	18327	2835	0
1	18362	2844	1
1	18362	2844	0
1	18387	2847	1
1	18387	2847	0