version 3
run Experimentos-57-20260508-20:05:38-28120
attr configname Experimentos
attr datetime 20260508-20:05:38
attr datetimef 20260508-200538
attr experiment Experimentos
attr inifile TwoQueues.ini
attr iterationvars "$p=0.6, $q=0.2, $Y=10, $m=4"
attr iterationvarsd p=0.6/q=0.2/Y=10/m=4
attr iterationvarsf p=0.6,q=0.2,Y=10,m=4-
attr measurement "$p=0.6, $q=0.2, $Y=10, $m=4"
attr network TwoQueues
attr processid 28120
attr repetition 17
attr replication #17
attr resultdir results
attr runnumber 57
attr seedset 57
itervar Y 10
itervar m 4
itervar p 0.6
itervar q 0.2
config description "Barrido completo de parámetros Proyecto 12"
config **.source1.p 0.6
config **.source1.q 0.2
config **.source2.p 0.6
config **.source2.q 0.2
config **.serverWithMaintenance.Y 10
config **.serverWithMaintenance.m 4
config network TwoQueues
config cpu-time-limit 5000s
config sim-time-limit 5000s
config warmup-period 400s
config repeat 20
config output-scalar-file results/Experimentos-p=0.6,q=0.2,Y=10,m=4--#17.sca
config output-vector-file results/Experimentos-p=0.6,q=0.2,Y=10,m=4--#17.vec
config **.vector-recording true

vector 0 TwoQueues.serverWithMaintenance residenceTime2:vector ETV
attr recordingmode vector
attr source delay2
attr title "Residence Time Class 2"
vector 1 TwoQueues.queue2 queueLengthStats:vector ETV
attr recordingmode vector
attr source qlen
attr title "Average Queue Length"
vector 2 TwoQueues.queue1 queueLengthStats:vector ETV
attr recordingmode vector
attr source qlen
attr title "Average Queue Length"
vector 3 TwoQueues.server residenceTime1:vector ETV
attr recordingmode vector
attr source delay1
attr title "Residence Time Class 1"
vector 4 TwoQueues.server throughputStats1:vector ETV
attr recordingmode vector
attr source throughput1
attr title "Throughput Class 1"
0	2568	403	1
0	2592	406	1
0	2601	407	2
0	2627	411	1
0	2633	412	2
0	2672	421	1
0	2681	422	2
0	2700	426	1
0	2750	433	1
0	2778	441	1
0	2810	446	5
0	2821	447	5
0	2836	449	1
0	2845	450	2
0	2892	456	1
0	2904	457	1
0	2927	460	1
0	2937	461	1
0	2962	466	1
0	2971	468	1
0	2987	473	2
0	3026	480	1
0	3057	484	1
0	3077	486	1
0	3088	487	1
0	3101	488	1
0	3112	489	1
0	3131	491	1
0	3191	501	1
0	3241	508	1
0	3281	513	5
0	3371	527	1
0	3387	528	1
0	3400	529	1
0	3469	538	1
0	3505	543	1
0	3536	547	1
0	3560	550	1
0	3583	555	1
0	3594	556	2
0	3627	562	1
0	3644	568	1
0	3714	579	1
0	3801	593	1
0	3822	595	1
0	3844	598	1
0	3892	606	1
0	3940	612	1
0	3965	615	1
0	3978	616	1
0	4022	622	1
0	4041	624	1
0	4057	625	1
0	4068	626	1
0	4079	627	1
0	4169	639	1
0	4192	642	1
0	4244	650	1
0	4316	662	1
0	4329	663	1
0	4361	668	4
0	4387	676	1
0	4468	691	1
0	4474	692	2
0	4555	707	1
0	4565	708	2
0	4590	711	1
0	4647	720	1
0	4671	723	1
0	4680	725	1
0	4722	732	1
0	4734	733	1
0	4755	737	1
0	4773	741	1
0	4796	746	1
0	4823	749	1
0	4854	754	1
0	4868	756	1
0	4983	772	1
0	5013	776	1
0	5050	781	3
0	5060	782	2
0	5143	798	1
0	5155	799	1
0	5165	800	2
0	5211	808	1
0	5225	809	2
0	5236	810	2
0	5277	815	1
0	5287	816	2
0	5316	821	5
0	5326	822	4
0	5334	823	2
0	5346	825	1
0	5357	826	2
0	5509	853	1
0	5532	857	1
0	5546	859	1
0	5588	865	1
0	5599	868	1
0	5628	873	4
0	5640	874	1
0	5715	888	1
0	5746	895	1
0	5758	896	1
0	5787	900	1
0	5808	903	1
0	5817	904	2
0	5825	905	1
0	5831	906	2
0	5849	911	5
0	5856	912	6
0	5862	913	4
0	5871	914	3
0	5883	915	1
0	5931	923	1
0	5943	925	1
0	5954	926	1
0	5988	933	1
0	6006	936	1
0	6052	941	5
0	6063	942	6
0	6074	943	5
0	6084	944	4
0	6094	945	5
0	6198	962	1
0	6207	963	2
0	6218	966	1
0	6227	968	1
0	6234	969	1
0	6261	974	3
0	6267	975	2
0	6274	976	1
0	6423	997	1
0	6497	1006	1
0	6507	1007	2
0	6519	1008	1
0	6556	1013	1
0	6607	1020	1
0	6654	1026	1
0	6692	1031	5
0	6702	1032	1
0	6709	1033	1
0	6716	1034	1
0	6727	1035	1
0	6743	1036	1
0	6779	1041	1
0	6840	1051	1
0	6849	1053	1
0	6860	1055	1
0	6897	1060	2
0	6908	1061	1
0	6933	1064	1
0	6945	1065	2
0	6960	1066	2
0	6970	1067	3
0	7026	1075	1
0	7043	1077	1
0	7054	1080	1
0	7090	1087	1
0	7122	1092	1
0	7301	1118	1
0	7315	1120	1
0	7325	1121	1
0	7343	1125	1
0	7356	1126	2
0	7373	1128	1
0	7383	1129	1
0	7390	1130	1
0	7408	1133	1
0	7456	1140	1
0	7468	1141	1
0	7485	1143	1
0	7619	1165	1
0	7637	1167	1
0	7647	1168	2
0	7685	1173	1
0	7725	1181	1
0	7803	1196	1
0	7814	1199	1
0	7854	1204	1
0	7878	1206	1
0	8028	1227	1
0	8039	1228	2
0	8069	1231	1
0	8101	1235	1
0	8121	1237	1
0	8184	1246	1
0	8195	1247	1
0	8214	1249	1
0	8254	1254	6
0	8265	1255	7
0	8274	1256	7
0	8289	1257	7
0	8302	1258	6
0	8315	1259	7
0	8326	1260	6
0	8337	1261	5
0	8348	1262	6
0	8361	1263	7
0	8403	1268	11
0	8414	1269	8
0	8426	1270	5
0	8438	1271	3
0	8449	1272	3
0	8506	1280	1
0	8550	1286	1
0	8602	1295	1
0	8640	1302	1
0	8681	1310	1
0	8707	1315	4
0	8751	1322	1
0	8761	1323	2
0	8806	1332	1
0	8817	1333	1
0	8823	1334	2
0	8844	1338	1
0	8854	1339	2
0	8864	1340	3
0	8876	1341	4
0	8912	1346	6
0	8929	1348	1
0	8941	1349	1
0	8955	1352	1
0	8996	1359	1
0	9063	1370	1
0	9095	1374	1
0	9101	1375	2
0	9108	1376	1
0	9127	1379	1
0	9166	1386	1
0	9250	1403	1
0	9262	1404	1
0	9284	1406	1
0	9295	1407	1
0	9307	1408	1
0	9320	1409	1
0	9344	1412	1
0	9360	1414	1
0	9416	1427	1
0	9504	1443	1
0	9542	1448	1
0	9558	1450	1
0	9590	1456	1
0	9652	1464	1
0	9663	1465	2
0	9703	1470	1
0	9731	1474	1
0	9772	1483	1
0	9781	1484	2
0	9810	1489	4
0	9873	1501	1
0	9879	1502	2
0	9885	1503	3
0	9940	1515	1
0	9946	1516	2
0	10011	1526	1
0	10040	1533	1
0	10061	1536	1
0	10071	1537	1
0	10158	1554	1
0	10200	1561	1
0	10229	1567	1
0	10243	1570	1
0	10255	1571	2
0	10281	1574	1
0	10297	1576	1
0	10317	1579	1
0	10329	1580	1
0	10347	1582	1
0	10384	1587	6
0	10394	1588	6
0	10405	1589	1
0	10417	1590	2
0	10431	1591	2
0	10442	1592	2
0	10452	1593	3
0	10475	1596	1
0	10487	1598	1
0	10498	1600	1
0	10541	1605	5
0	10577	1612	1
0	10583	1613	2
0	10649	1626	1
0	10661	1627	1
0	10756	1643	1
0	10792	1648	1
0	10810	1650	1
0	10831	1654	1
0	10838	1655	2
0	10865	1660	6
0	10874	1661	5
0	10882	1662	5
0	10978	1680	1
0	10990	1681	1
0	10998	1682	2
0	11004	1683	3
0	11015	1684	1
0	11048	1691	1
0	11073	1695	1
0	11106	1701	1
0	11113	1702	1
0	11135	1708	1
0	11191	1717	1
0	11225	1722	1
0	11237	1724	1
0	11255	1728	1
0	11264	1730	1
0	11275	1731	1
0	11293	1733	1
0	11333	1738	5
0	11382	1751	1
0	11405	1754	1
0	11430	1759	1
0	11451	1761	1
0	11469	1763	1
0	11508	1768	1
0	11576	1784	1
0	11587	1785	1
0	11627	1792	1
0	11660	1797	2
0	11774	1813	1
0	11785	1814	1
0	11830	1820	1
0	11886	1828	1
0	11917	1832	1
0	11947	1838	1
0	12082	1859	1
0	12095	1860	2
0	12106	1861	1
0	12136	1867	1
0	12201	1879	1
0	12218	1881	1
0	12252	1885	1
0	12314	1896	1
0	12339	1900	1
0	12352	1901	1
0	12377	1905	1
0	12384	1906	1
0	12428	1913	1
0	12471	1918	2
0	12490	1920	1
0	12536	1926	1
0	12547	1927	2
0	12557	1928	2
0	12622	1937	1
0	12633	1938	2
0	12719	1953	1
0	12777	1962	1
0	12812	1972	1
0	12852	1977	4
0	12876	1980	1
0	12970	1997	1
0	12981	1998	2
0	13015	2002	1
0	13080	2010	1
0	13176	2023	1
0	13208	2027	1
0	13267	2035	1
0	13284	2037	1
0	13332	2042	5
0	13343	2043	5
0	13353	2044	6
0	13376	2047	1
0	13432	2054	1
0	13458	2057	1
0	13468	2058	2
0	13480	2059	1
0	13510	2063	1
0	13520	2064	2
0	13568	2070	1
0	13591	2075	1
0	13609	2079	1
0	13628	2082	1
0	13660	2086	1
0	13700	2096	1
0	13748	2106	1
0	13755	2107	1
0	13766	2109	1
0	13778	2111	1
0	13808	2116	3
0	13819	2117	2
0	13844	2121	1
0	13894	2131	1
0	13910	2134	1
0	13956	2142	1
0	13972	2144	1
0	13991	2146	1
0	14038	2156	1
0	14078	2161	1
0	14203	2180	1
0	14227	2186	1
0	14274	2193	1
0	14301	2198	1
0	14317	2202	1
0	14373	2217	1
0	14379	2218	2
0	14411	2223	1
0	14475	2232	1
0	14486	2233	1
0	14516	2238	5
0	14522	2239	4
0	14560	2244	1
0	14571	2245	1
0	14581	2246	1
0	14705	2262	1
0	14739	2266	1
0	14771	2270	1
0	14794	2273	1
0	14836	2279	1
0	14873	2284	2
0	14970	2301	1
0	15002	2307	1
0	15038	2313	1
0	15067	2317	1
0	15097	2321	1
0	15113	2324	1
0	15145	2331	1
0	15156	2332	1
0	15189	2336	1
0	15214	2341	4
0	15223	2342	3
0	15250	2345	1
0	15260	2346	2
0	15274	2349	1
0	15283	2351	1
0	15299	2353	1
0	15311	2355	1
0	15318	2356	1
0	15350	2362	1
0	15392	2367	5
0	15437	2373	1
0	15473	2378	1
0	15489	2380	1
0	15546	2388	1
0	15560	2389	2
0	15570	2390	3
0	15585	2391	3
0	15628	2397	1
0	15658	2401	1
0	15705	2408	1
0	15711	2409	2
0	15724	2410	1
0	15831	2427	1
0	15842	2428	2
0	15911	2440	1
0	16001	2459	1
0	16010	2461	1
0	16017	2462	1
0	16027	2463	1
0	16053	2468	5
0	16063	2469	4
0	16075	2470	2
0	16174	2485	1
0	16184	2486	2
0	16259	2496	1
0	16339	2508	1
0	16350	2509	2
0	16370	2511	1
0	16380	2512	2
0	16404	2518	1
0	16415	2519	2
0	16440	2525	1
0	16459	2527	1
0	16529	2537	1
0	16538	2539	1
0	16575	2546	1
0	16632	2556	1
0	16748	2576	1
0	16774	2579	1
0	16829	2586	1
0	16860	2590	1
0	16871	2591	1
0	16882	2592	1
0	16892	2593	1
0	16907	2596	1
0	16917	2597	2
0	16940	2602	1
0	16960	2606	1
0	16973	2608	1
0	17012	2613	6
0	17038	2616	1
0	17093	2629	1
0	17109	2631	1
0	17123	2633	1
0	17141	2637	1
0	17158	2639	1
0	17200	2649	1
0	17238	2654	1
0	17254	2656	1
0	17293	2667	1
0	17299	2668	2
0	17312	2672	1
0	17323	2675	1
0	17353	2683	1
0	17435	2694	1
0	17464	2698	1
0	17585	2721	1
0	17612	2726	1
0	17699	2742	1
0	17723	2747	5
0	17751	2751	1
0	17841	2763	1
0	17906	2772	1
0	17946	2780	1
0	17966	2786	1
0	17976	2787	1
0	18001	2791	1
0	18008	2792	1
0	18031	2796	1
0	18071	2801	3
0	18124	2808	1
0	18180	2818	1
0	18220	2823	1
0	18241	2825	1
0	18260	2827	1
0	18272	2828	2
0	18282	2829	2
0	18293	2830	3
0	18302	2831	2
0	18333	2836	2
0	18343	2837	1
0	18359	2839	1
0	18399	2846	1
0	18425	2849	1
0	18436	2850	1
0	18448	2851	1
0	18513	2861	1
0	18531	2864	1
0	18548	2866	1
0	18592	2874	1
0	18605	2875	1
0	18615	2876	2
0	18624	2877	2
0	18639	2880	1
0	18697	2891	1
0	18717	2895	1
0	18731	2897	1
0	18780	2909	1
0	18869	2931	1
0	18895	2936	2
0	18916	2940	1
0	18995	2951	1
0	19022	2954	1
0	19033	2955	1
0	19044	2956	1
0	19078	2960	1
0	19191	2976	1
0	19201	2977	2
0	19284	2988	1
0	19323	2993	2
0	19366	3001	1
0	19423	3012	1
0	19455	3018	1
0	19464	3020	1
0	19484	3025	1
0	19505	3028	1
0	19515	3029	2
0	19531	3031	1
0	19633	3057	1
0	19663	3062	1
0	19674	3063	1
0	19701	3068	1
0	19710	3070	1
0	19806	3085	1
0	19837	3089	1
0	19877	3096	1
0	19887	3097	1
0	19991	3118	1
0	20001	3119	1
0	20024	3124	4
0	20035	3125	1
0	20046	3126	1
0	20058	3127	1
0	20070	3128	1
0	20101	3135	1
0	20117	3138	1
0	20148	3142	1
0	20168	3145	1
0	20186	3150	1
0	20211	3155	5
0	20222	3156	2
0	20235	3157	1
0	20245	3158	2
0	20258	3159	1
0	20277	3161	1
0	20318	3166	1
0	20394	3181	1
0	20423	3188	1
0	20439	3191	1
0	20536	3206	1
0	20566	3210	1
0	20634	3222	1
0	20668	3227	1
0	20674	3228	2
0	20685	3230	1
0	20697	3232	1
0	20719	3237	1
0	20740	3241	1
0	20762	3246	1
0	20792	3251	4
0	20805	3252	2
0	20815	3253	2
0	20873	3262	1
0	20918	3270	1
0	20949	3274	1
0	21006	3285	1
0	21031	3288	1
0	21037	3289	2
0	21046	3291	1
0	21063	3296	5
0	21072	3297	5
0	21084	3298	1
0	21116	3303	1
0	21125	3305	1
0	21140	3309	1
0	21150	3310	1
0	21158	3311	1
0	21164	3312	2
0	21184	3317	1
0	21227	3323	1
0	21258	3332	1
0	21269	3333	2
0	21282	3334	1
0	21314	3340	1
0	21326	3341	2
0	21345	3343	1
0	21373	3351	1
0	21433	3361	1
0	21553	3381	1
0	21608	3389	1
0	21619	3390	1
0	21631	3392	1
0	21640	3394	1
0	21657	3397	1
0	21675	3399	1
0	21699	3402	1
0	21724	3406	1
0	21743	3413	1
0	21751	3414	1
0	21795	3419	6
0	21807	3420	6
0	21817	3421	5
0	21830	3422	3
0	21840	3423	2
0	21881	3428	1
0	21913	3432	1
0	21924	3433	1
0	21957	3437	1
0	21988	3441	1
0	22036	3451	1
0	22050	3453	1
0	22107	3464	1
0	22156	3475	1
0	22175	3478	1
0	22186	3479	2
0	22197	3480	2
0	22215	3482	1
0	22243	3486	1
0	22278	3491	1
0	22302	3496	3
0	22313	3497	1
0	22322	3498	2
0	22331	3499	2
0	22363	3505	1
0	22417	3516	1
0	22435	3519	1
0	22465	3523	1
0	22476	3524	2
0	22490	3525	2
0	22534	3530	6
0	22547	3531	5
0	22558	3532	1
0	22583	3535	1
0	22594	3536	1
0	22660	3545	1
0	22689	3549	1
0	22812	3573	1
0	22828	3575	1
0	22854	3579	1
0	22931	3593	1
0	22957	3596	1
0	22983	3600	1
0	22989	3601	2
0	22996	3602	1
0	23030	3607	1
0	23055	3610	1
0	23074	3612	1
0	23124	3622	1
0	23135	3623	2
0	23183	3630	1
0	23190	3631	1
0	23277	3647	1
0	23322	3653	1
0	23333	3654	1
0	23358	3657	1
0	23364	3658	2
0	23409	3664	1
0	23497	3676	1
0	23527	3680	1
0	23586	3692	1
0	23665	3702	1
0	23725	3710	1
0	23781	3721	1
0	23790	3723	1
0	23824	3730	1
0	23888	3740	1
0	23897	3741	2
0	23903	3742	3
0	23967	3754	1
0	23989	3759	2
0	23995	3760	3
0	24020	3765	1
0	24039	3767	1
0	24083	3773	1
0	24125	3780	1
0	24145	3785	1
0	24201	3795	1
0	24215	3796	2
0	24225	3797	2
0	24278	3804	1
0	24288	3805	2
0	24372	3817	1
0	24415	3822	1
0	24425	3823	2
0	24485	3831	1
0	24530	3837	1
0	24540	3838	2
0	24569	3843	1
0	24579	3844	1
0	24595	3849	5
0	24609	3851	1
0	24616	3852	1
0	24646	3857	1
0	24685	3863	1
0	24738	3872	1
0	24776	3877	1
0	24830	3888	1
0	24867	3894	1
0	24925	3903	1
0	24957	3908	4
0	24966	3909	3
0	24974	3910	4
0	24984	3911	5
0	25012	3916	1
0	25061	3923	1
0	25080	3926	1
0	25088	3927	1
0	25094	3928	2
0	25101	3929	1
0	25135	3938	1
0	25155	3943	1
0	25169	3946	1
0	25190	3949	1
0	25202	3950	2
0	25211	3951	2
0	25245	3957	1
0	25262	3960	1
0	25294	3964	1
0	25304	3965	1
0	25329	3972	1
0	25377	3981	1
0	25405	3985	1
0	25434	3991	1
0	25447	3993	1
0	25453	3994	2
0	25464	3997	1
0	25503	4004	1
0	25512	4006	1
0	25532	4008	1
0	25571	4013	6
0	25582	4014	1
0	25628	4020	1
0	25640	4022	1
0	25651	4024	1
0	25684	4031	1
0	25690	4032	2
0	25701	4034	1
0	25728	4040	1
0	25740	4041	1
0	25782	4046	2
0	25825	4054	1
0	25838	4055	1
0	25856	4057	1
0	25875	4059	1
0	25908	4063	1
0	25931	4066	1
0	25955	4069	1
0	26014	4076	1
0	26055	4081	1
0	26094	4086	2
0	26125	4090	1
0	26251	4108	1
0	26283	4112	1
0	26294	4113	2
0	26305	4114	3
0	26315	4115	3
0	26326	4116	3
0	26336	4117	2
0	26392	4127	1
0	26414	4132	5
0	26424	4133	2
0	26469	4140	1
0	26538	4152	1
0	26545	4153	1
0	26563	4155	1
0	26621	4167	1
0	26632	4168	1
0	26648	4172	1
0	26678	4177	1
0	26772	4194	1
0	26796	4197	1
0	26862	4206	1
0	26954	4221	1
0	27033	4233	1
0	27062	4236	1
0	27106	4243	1
0	27117	4244	1
0	27136	4248	1
0	27183	4255	1
0	27226	4260	4
0	27275	4266	1
0	27342	4275	1
0	27429	4287	1
0	27488	4295	1
0	27500	4296	1
0	27511	4297	1
0	27555	4303	1
0	27589	4308	1
0	27605	4311	1
0	27651	4317	1
0	27658	4318	1
0	27707	4330	1
0	27743	4338	1
0	27754	4340	1
0	27775	4342	1
0	27792	4344	1
0	27806	4345	1
0	27850	4352	1
0	27890	4357	1
0	27934	4362	1
0	28001	4374	1
0	28008	4375	1
0	28016	4376	1
0	28023	4377	2
0	28029	4378	2
0	28055	4386	1
0	28160	4411	1
0	28177	4413	1
0	28207	4420	1
0	28248	4425	5
0	28258	4426	2
0	28268	4427	1
0	28275	4428	1
0	28304	4436	1
0	28363	4448	1
0	28374	4449	1
0	28410	4456	1
0	28436	4459	1
0	28501	4467	1
0	28550	4474	1
0	28576	4478	1
0	28583	4479	1
0	28591	4480	1
0	28597	4481	2
0	28713	4503	1
0	28735	4506	1
0	28816	4518	1
0	28885	4527	1
0	28895	4528	2
0	28938	4533	3
0	28952	4534	1
0	28969	4536	1
0	28980	4537	1
0	28993	4538	1
0	29006	4539	1
0	29080	4552	1
0	29104	4555	1
0	29133	4561	1
0	29146	4565	1
0	29254	4580	1
0	29267	4581	1
0	29357	4593	1
0	29384	4596	1
0	29467	4608	1
0	29491	4611	1
0	29541	4619	1
0	29552	4620	1
0	29584	4624	1
0	29610	4627	1
0	29710	4641	1
0	29727	4643	1
0	29754	4646	1
0	29765	4647	2
0	29776	4648	2
0	29802	4653	1
0	29848	4659	1
0	29860	4660	1
0	29882	4663	1
0	29954	4674	1
0	30001	4680	1
0	30051	4687	1
0	30062	4688	1
0	30105	4694	1
0	30116	4695	1
0	30209	4708	1
0	30249	4715	1
0	30376	4741	1
0	30420	4747	1
0	30432	4749	1
0	30503	4759	1
0	30528	4762	1
0	30547	4764	1
0	30575	4767	1
0	30604	4771	1
0	30651	4779	1
0	30660	4780	2
0	30684	4784	1
0	30694	4785	2
0	30707	4786	2
0	30742	4791	5
0	30753	4792	5
0	30762	4793	3
0	30769	4794	1
0	30780	4795	1
0	30799	4797	1
0	30810	4798	2
0	30840	4802	1
0	30855	4806	1
0	30891	4813	1
0	30996	4833	1
0	31029	4839	1
0	31110	4854	1
0	31134	4857	1
0	31181	4863	1
0	31192	4864	1
0	31216	4869	1
0	31222	4870	2
0	31241	4872	1
0	31259	4874	1
0	31305	4879	5
0	31315	4880	4
0	31327	4881	1
0	31360	4885	1
0	31370	4886	2
0	31381	4887	1
0	31485	4903	1
0	31494	4904	2
0	31510	4908	1
0	31517	4909	2
0	31537	4914	6
0	31666	4937	1
0	31705	4942	1
0	31750	4948	1
0	31774	4951	1
0	31882	4974	1
0	31905	4979	1
0	31924	4981	1
0	31967	4988	1
0	31979	4990	1
0	32001	4995	5
0	32007	4996	6
1	2561	402	1
1	2561	402	0
1	2585	405	1
1	2585	405	0
1	2586	405	1
1	2595	406	0
1	2620	410	1
1	2620	410	0
1	2621	410	1
1	2629	411	0
1	2665	420	1
1	2665	420	0
1	2666	420	1
1	2675	421	0
1	2692	425	1
1	2692	425	0
1	2744	432	1
1	2744	432	0
1	2772	440	1
1	2772	440	0
1	2780	441	1
1	2789	442	2
1	2804	445	1
1	2814	446	0
1	2829	448	1
1	2829	448	0
1	2830	448	1
1	2839	449	0
1	2883	455	1
1	2883	455	0
1	2894	456	1
1	2897	456	0
1	2920	459	1
1	2920	459	0
1	2929	460	1
1	2931	460	0
1	2956	465	1
1	2956	465	0
1	2967	467	1
1	2967	467	0
1	2979	471	1
1	2983	472	0
1	3022	479	1
1	3022	479	0
1	3049	483	1
1	3049	483	0
1	3068	485	1
1	3068	485	0
1	3079	486	1
1	3081	486	0
1	3090	487	1
1	3094	487	0
1	3103	488	1
1	3105	488	0
1	3122	490	1
1	3122	490	0
1	3184	500	1
1	3184	500	0
1	3233	507	1
1	3233	507	0
1	3243	508	1
1	3274	512	0
1	3365	526	1
1	3365	526	0
1	3372	527	1
1	3381	527	0
1	3388	528	1
1	3394	528	0
1	3462	537	1
1	3462	537	0
1	3498	542	1
1	3498	542	0
1	3529	546	1
1	3529	546	0
1	3552	549	1
1	3552	549	0
1	3578	554	1
1	3578	554	0
1	3579	554	1
1	3588	555	0
1	3623	561	1
1	3623	561	0
1	3640	567	1
1	3640	567	0
1	3707	578	1
1	3707	578	0
1	3794	592	1
1	3794	592	0
1	3815	594	1
1	3815	594	0
1	3838	597	1
1	3838	597	0
1	3884	605	1
1	3884	605	0
1	3933	611	1
1	3933	611	0
1	3958	614	1
1	3958	614	0
1	3967	615	1
1	3971	615	0
1	4015	621	1
1	4015	621	0
1	4032	623	1
1	4032	623	0
1	4043	624	1
1	4050	624	0
1	4059	625	1
1	4061	625	0
1	4070	626	1
1	4072	626	0
1	4162	638	1
1	4162	638	0
1	4185	641	1
1	4185	641	0
1	4240	649	1
1	4240	649	0
1	4308	661	1
1	4308	661	0
1	4318	662	1
1	4322	662	0
1	4339	664	1
1	4357	667	0
1	4383	675	1
1	4383	675	0
1	4461	690	1
1	4461	690	0
1	4462	690	1
1	4470	691	0
1	4550	706	1
1	4550	706	0
1	4551	706	1
1	4559	707	0
1	4583	710	1
1	4583	710	0
1	4641	719	1
1	4641	719	0
1	4665	722	1
1	4665	722	0
1	4676	724	1
1	4676	724	0
1	4715	731	1
1	4715	731	0
1	4724	732	1
1	4727	732	0
1	4751	736	1
1	4751	736	0
1	4767	740	1
1	4767	740	0
1	4788	745	1
1	4788	745	0
1	4816	748	1
1	4816	748	0
1	4848	753	1
1	4848	753	0
1	4862	755	1
1	4862	755	0
1	4976	771	1
1	4976	771	0
1	5005	775	1
1	5005	775	0
1	5029	778	1
1	5043	780	0
1	5044	780	1
1	5054	781	0
1	5134	797	1
1	5134	797	0
1	5145	798	1
1	5146	798	2
1	5148	798	1
1	5158	799	0
1	5204	807	1
1	5204	807	0
1	5205	807	1
1	5213	808	2
1	5218	808	1
1	5229	809	0
1	5269	814	1
1	5269	814	0
1	5270	814	1
1	5280	815	0
1	5289	816	1
1	5301	818	2
1	5310	820	1
1	5317	821	2
1	5320	821	1
1	5330	822	0
1	5339	824	1
1	5339	824	0
1	5340	824	1
1	5350	825	0
1	5503	852	1
1	5503	852	0
1	5526	856	1
1	5526	856	0
1	5540	858	1
1	5540	858	0
1	5582	864	1
1	5582	864	0
1	5595	867	1
1	5595	867	0
1	5606	869	1
1	5619	872	0
1	5630	873	1
1	5633	873	0
1	5711	887	1
1	5711	887	0
1	5740	894	1
1	5740	894	0
1	5748	895	1
1	5751	895	0
1	5779	899	1
1	5779	899	0
1	5801	902	1
1	5801	902	0
1	5802	902	1
1	5811	903	0
1	5818	904	1
1	5819	904	2
1	5821	904	1
1	5827	905	0
1	5832	906	1
1	5833	906	2
1	5841	909	3
1	5845	910	2
1	5850	911	3
1	5852	911	2
1	5858	912	1
1	5865	913	0
1	5872	914	1
1	5877	914	0
1	5925	922	1
1	5925	922	0
1	5936	924	1
1	5936	924	0
1	5945	925	1
1	5947	925	0
1	5982	932	1
1	5982	932	0
1	5998	935	1
1	5998	935	0
1	6008	936	1
1	6009	936	2
1	6025	938	3
1	6042	940	2
1	6043	940	3
1	6044	940	4
1	6056	941	3
1	6067	942	2
1	6077	943	1
1	6087	944	0
1	6190	961	1
1	6190	961	0
1	6191	961	1
1	6201	962	0
1	6214	965	1
1	6214	965	0
1	6223	967	1
1	6223	967	0
1	6228	968	1
1	6230	968	0
1	6245	971	1
1	6254	973	0
1	6255	973	1
1	6263	974	0
1	6268	975	1
1	6270	975	0
1	6415	996	1
1	6415	996	0
1	6489	1005	1
1	6489	1005	0
1	6490	1005	1
1	6500	1006	0
1	6509	1007	1
1	6512	1007	0
1	6547	1012	1
1	6547	1012	0
1	6600	1019	1
1	6600	1019	0
1	6646	1025	1
1	6646	1025	0
1	6656	1026	1
1	6684	1030	0
1	6694	1031	1
1	6696	1031	0
1	6703	1032	1
1	6705	1032	0
1	6710	1033	1
1	6712	1033	0
1	6717	1034	1
1	6721	1034	0
1	6728	1035	1
1	6737	1035	0
1	6772	1040	1
1	6772	1040	0
1	6836	1050	1
1	6836	1050	0
1	6845	1052	1
1	6845	1052	0
1	6854	1054	1
1	6854	1054	0
1	6880	1058	1
1	6889	1059	0
1	6899	1060	1
1	6901	1060	0
1	6922	1063	1
1	6922	1063	0
1	6923	1063	1
1	6935	1064	2
1	6936	1064	3
1	6938	1064	2
1	6953	1065	1
1	6963	1066	0
1	7018	1074	1
1	7018	1074	0
1	7037	1076	1
1	7037	1076	0
1	7050	1079	1
1	7050	1079	0
1	7084	1086	1
1	7084	1086	0
1	7115	1091	1
1	7115	1091	0
1	7295	1117	1
1	7295	1117	0
1	7309	1119	1
1	7309	1119	0
1	7316	1120	1
1	7319	1120	0
1	7336	1124	1
1	7336	1124	0
1	7337	1124	1
1	7349	1125	0
1	7366	1127	1
1	7366	1127	0
1	7375	1128	1
1	7377	1128	0
1	7384	1129	1
1	7386	1129	0
1	7401	1132	1
1	7401	1132	0
1	7450	1139	1
1	7450	1139	0
1	7457	1140	1
1	7462	1140	0
1	7478	1142	1
1	7478	1142	0
1	7610	1164	1
1	7610	1164	0
1	7629	1166	1
1	7629	1166	0
1	7630	1166	1
1	7640	1167	0
1	7678	1172	1
1	7678	1172	0
1	7718	1180	1
1	7718	1180	0
1	7797	1195	1
1	7797	1195	0
1	7810	1198	1
1	7810	1198	0
1	7847	1203	1
1	7847	1203	0
1	7871	1205	1
1	7871	1205	0
1	8020	1226	1
1	8020	1226	0
1	8021	1226	1
1	8032	1227	0
1	8055	1230	1
1	8055	1230	0
1	8093	1234	1
1	8093	1234	0
1	8114	1236	1
1	8114	1236	0
1	8177	1245	1
1	8177	1245	0
1	8186	1246	1
1	8188	1246	0
1	8205	1248	1
1	8205	1248	0
1	8206	1248	1
1	8207	1248	2
1	8216	1249	3
1	8226	1250	4
1	8240	1252	5
1	8241	1252	6
1	8247	1253	5
1	8256	1254	6
1	8258	1254	5
1	8268	1255	4
1	8275	1256	5
1	8276	1256	6
1	8277	1256	7
1	8283	1256	6
1	8290	1257	7
1	8296	1257	6
1	8309	1258	5
1	8320	1259	4
1	8331	1260	3
1	8338	1261	4
1	8342	1261	3
1	8355	1262	2
1	8378	1265	3
1	8393	1267	2
1	8405	1268	3
1	8407	1268	2
1	8416	1269	3
1	8419	1269	2
1	8431	1270	1
1	8442	1271	0
1	8497	1279	1
1	8497	1279	0
1	8543	1285	1
1	8543	1285	0
1	8594	1294	1
1	8594	1294	0
1	8633	1301	1
1	8633	1301	0
1	8675	1309	1
1	8675	1309	0
1	8688	1311	1
1	8701	1314	0
1	8741	1321	1
1	8741	1321	0
1	8742	1321	1
1	8754	1322	0
1	8799	1331	1
1	8799	1331	0
1	8808	1332	1
1	8809	1332	2
1	8811	1332	1
1	8819	1333	0
1	8837	1337	1
1	8837	1337	0
1	8838	1337	1
1	8839	1337	2
1	8840	1337	3
1	8848	1338	2
1	8858	1339	1
1	8865	1340	2
1	8870	1340	1
1	8902	1345	0
1	8922	1347	1
1	8922	1347	0
1	8931	1348	1
1	8934	1348	0
1	8951	1351	1
1	8951	1351	0
1	8989	1358	1
1	8989	1358	0
1	9056	1369	1
1	9056	1369	0
1	9088	1373	1
1	9088	1373	0
1	9089	1373	1
1	9097	1374	0
1	9102	1375	1
1	9104	1375	0
1	9118	1378	1
1	9118	1378	0
1	9158	1385	1
1	9158	1385	0
1	9242	1402	1
1	9242	1402	0
1	9252	1403	1
1	9255	1403	0
1	9277	1405	1
1	9277	1405	0
1	9286	1406	1
1	9288	1406	0
1	9297	1407	1
1	9300	1407	0
1	9309	1408	1
1	9313	1408	0
1	9336	1411	1
1	9336	1411	0
1	9354	1413	1
1	9354	1413	0
1	9412	1426	1
1	9412	1426	0
1	9500	1442	1
1	9500	1442	0
1	9533	1447	1
1	9533	1447	0
1	9552	1449	1
1	9552	1449	0
1	9580	1455	1
1	9580	1455	0
1	9644	1463	1
1	9644	1463	0
1	9645	1463	1
1	9656	1464	0
1	9694	1469	1
1	9694	1469	0
1	9725	1473	1
1	9725	1473	0
1	9765	1482	1
1	9765	1482	0
1	9766	1482	1
1	9775	1483	0
1	9785	1485	1
1	9803	1488	0
1	9867	1500	1
1	9867	1500	0
1	9868	1500	1
1	9869	1500	2
1	9875	1501	1
1	9881	1502	0
1	9933	1514	1
1	9933	1514	0
1	9934	1514	1
1	9942	1515	0
1	10005	1525	1
1	10005	1525	0
1	10036	1532	1
1	10036	1532	0
1	10055	1535	1
1	10055	1535	0
1	10062	1536	1
1	10065	1536	0
1	10154	1553	1
1	10154	1553	0
1	10193	1560	1
1	10193	1560	0
1	10225	1566	1
1	10225	1566	0
1	10236	1569	1
1	10236	1569	0
1	10237	1569	1
1	10248	1570	0
1	10272	1573	1
1	10272	1573	0
1	10291	1575	1
1	10291	1575	0
1	10309	1578	1
1	10309	1578	0
1	10319	1579	1
1	10322	1579	0
1	10339	1581	1
1	10339	1581	0
1	10340	1581	1
1	10349	1582	2
1	10377	1586	1
1	10387	1587	0
1	10396	1588	1
1	10397	1588	2
1	10399	1588	1
1	10406	1589	2
1	10411	1589	1
1	10418	1590	2
1	10419	1590	3
1	10425	1590	2
1	10436	1591	1
1	10446	1592	0
1	10467	1595	1
1	10467	1595	0
1	10483	1597	1
1	10483	1597	0
1	10492	1599	1
1	10492	1599	0
1	10500	1600	1
1	10531	1604	0
1	10572	1611	1
1	10572	1611	0
1	10573	1611	1
1	10579	1612	0
1	10640	1625	1
1	10640	1625	0
1	10651	1626	1
1	10654	1626	0
1	10749	1642	1
1	10749	1642	0
1	10782	1647	1
1	10782	1647	0
1	10802	1649	1
1	10802	1649	0
1	10826	1653	1
1	10826	1653	0
1	10827	1653	1
1	10832	1654	2
1	10834	1654	1
1	10845	1656	2
1	10850	1657	3
1	10861	1659	2
1	10868	1660	1
1	10878	1661	0
1	10974	1679	1
1	10974	1679	0
1	10979	1680	1
1	10980	1680	2
1	10981	1680	3
1	10984	1680	2
1	10994	1681	1
1	11000	1682	0
1	11005	1683	1
1	11009	1683	0
1	11040	1690	1
1	11040	1690	0
1	11067	1694	1
1	11067	1694	0
1	11102	1700	1
1	11102	1700	0
1	11107	1701	1
1	11109	1701	0
1	11129	1707	1
1	11129	1707	0
1	11183	1716	1
1	11183	1716	0
1	11219	1721	1
1	11219	1721	0
1	11233	1723	1
1	11233	1723	0
1	11249	1727	1
1	11249	1727	0
1	11260	1729	1
1	11260	1729	0
1	11265	1730	1
1	11269	1730	0
1	11284	1732	1
1	11284	1732	0
1	11295	1733	1
1	11325	1737	0
1	11378	1750	1
1	11378	1750	0
1	11398	1753	1
1	11398	1753	0
1	11423	1758	1
1	11423	1758	0
1	11441	1760	1
1	11441	1760	0
1	11461	1762	1
1	11461	1762	0
1	11501	1767	1
1	11501	1767	0
1	11568	1783	1
1	11568	1783	0
1	11578	1784	1
1	11580	1784	0
1	11619	1791	1
1	11619	1791	0
1	11647	1795	1
1	11654	1796	0
1	11766	1812	1
1	11766	1812	0
1	11776	1813	1
1	11778	1813	0
1	11823	1819	1
1	11823	1819	0
1	11877	1827	1
1	11877	1827	0
1	11910	1831	1
1	11910	1831	0
1	11941	1837	1
1	11941	1837	0
1	12073	1858	1
1	12073	1858	0
1	12074	1858	1
1	12088	1859	0
1	12097	1860	1
1	12099	1860	0
1	12132	1866	1
1	12132	1866	0
1	12194	1878	1
1	12194	1878	0
1	12211	1880	1
1	12211	1880	0
1	12243	1884	1
1	12243	1884	0
1	12308	1895	1
1	12308	1895	0
1	12331	1899	1
1	12331	1899	0
1	12341	1900	1
1	12345	1900	0
1	12371	1904	1
1	12371	1904	0
1	12378	1905	1
1	12380	1905	0
1	12421	1912	1
1	12421	1912	0
1	12449	1916	1
1	12463	1917	0
1	12483	1919	1
1	12483	1919	0
1	12528	1925	1
1	12528	1925	0
1	12529	1925	1
1	12538	1926	2
1	12540	1926	1
1	12550	1927	0
1	12611	1936	1
1	12611	1936	0
1	12612	1936	1
1	12626	1937	0
1	12709	1952	1
1	12709	1952	0
1	12773	1961	1
1	12773	1961	0
1	12808	1971	1
1	12808	1971	0
1	12822	1973	1
1	12845	1976	0
1	12869	1979	1
1	12869	1979	0
1	12959	1996	1
1	12959	1996	0
1	12960	1996	1
1	12974	1997	0
1	13007	2001	1
1	13007	2001	0
1	13072	2009	1
1	13072	2009	0
1	13167	2022	1
1	13167	2022	0
1	13201	2026	1
1	13201	2026	0
1	13260	2034	1
1	13260	2034	0
1	13277	2036	1
1	13277	2036	0
1	13286	2037	1
1	13295	2038	2
1	13296	2038	3
1	13325	2041	2
1	13336	2042	1
1	13346	2043	0
1	13369	2046	1
1	13369	2046	0
1	13425	2053	1
1	13425	2053	0
1	13449	2056	1
1	13449	2056	0
1	13450	2056	1
1	13461	2057	0
1	13470	2058	1
1	13473	2058	0
1	13502	2062	1
1	13502	2062	0
1	13503	2062	1
1	13513	2063	0
1	13561	2069	1
1	13561	2069	0
1	13585	2074	1
1	13585	2074	0
1	13603	2078	1
1	13603	2078	0
1	13621	2081	1
1	13621	2081	0
1	13652	2085	1
1	13652	2085	0
1	13694	2095	1
1	13694	2095	0
1	13744	2105	1
1	13744	2105	0
1	13749	2106	1
1	13751	2106	0
1	13760	2108	1
1	13760	2108	0
1	13774	2110	1
1	13774	2110	0
1	13784	2113	1
1	13798	2115	0
1	13799	2115	1
1	13812	2116	0
1	13838	2120	1
1	13838	2120	0
1	13890	2130	1
1	13890	2130	0
1	13906	2133	1
1	13906	2133	0
1	13950	2141	1
1	13950	2141	0
1	13965	2143	1
1	13965	2143	0
1	13984	2145	1
1	13984	2145	0
1	14030	2155	1
1	14030	2155	0
1	14070	2160	1
1	14070	2160	0
1	14199	2179	1
1	14199	2179	0
1	14221	2185	1
1	14221	2185	0
1	14268	2192	1
1	14268	2192	0
1	14293	2197	1
1	14293	2197	0
1	14313	2201	1
1	14313	2201	0
1	14368	2216	1
1	14368	2216	0
1	14369	2216	1
1	14375	2217	0
1	14404	2222	1
1	14404	2222	0
1	14466	2231	1
1	14466	2231	0
1	14477	2232	1
1	14479	2232	0
1	14488	2233	1
1	14504	2235	2
1	14512	2237	1
1	14518	2238	0
1	14552	2243	1
1	14552	2243	0
1	14562	2244	1
1	14564	2244	0
1	14573	2245	1
1	14575	2245	0
1	14696	2261	1
1	14696	2261	0
1	14732	2265	1
1	14732	2265	0
1	14762	2269	1
1	14762	2269	0
1	14787	2272	1
1	14787	2272	0
1	14828	2278	1
1	14828	2278	0
1	14859	2282	1
1	14867	2283	0
1	14963	2300	1
1	14963	2300	0
1	14995	2306	1
1	14995	2306	0
1	15031	2312	1
1	15031	2312	0
1	15058	2316	1
1	15058	2316	0
1	15091	2320	1
1	15091	2320	0
1	15109	2323	1
1	15109	2323	0
1	15137	2330	1
1	15137	2330	0
1	15147	2331	1
1	15149	2331	0
1	15182	2335	1
1	15182	2335	0
1	15196	2337	1
1	15201	2339	2
1	15208	2340	1
1	15217	2341	0
1	15241	2344	1
1	15241	2344	0
1	15242	2344	1
1	15253	2345	0
1	15270	2348	1
1	15270	2348	0
1	15279	2350	1
1	15279	2350	0
1	15292	2352	1
1	15292	2352	0
1	15307	2354	1
1	15307	2354	0
1	15312	2355	1
1	15314	2355	0
1	15339	2361	1
1	15339	2361	0
1	15352	2362	1
1	15385	2366	0
1	15430	2372	1
1	15430	2372	0
1	15467	2377	1
1	15467	2377	0
1	15482	2379	1
1	15482	2379	0
1	15536	2387	1
1	15536	2387	0
1	15537	2387	1
1	15538	2387	2
1	15548	2388	3
1	15553	2388	2
1	15563	2389	1
1	15578	2390	0
1	15620	2396	1
1	15620	2396	0
1	15651	2400	1
1	15651	2400	0
1	15698	2407	1
1	15698	2407	0
1	15699	2407	1
1	15707	2408	0
1	15712	2409	1
1	15718	2409	0
1	15823	2426	1
1	15823	2426	0
1	15824	2426	1
1	15835	2427	0
1	15903	2439	1
1	15903	2439	0
1	15997	2458	1
1	15997	2458	0
1	16006	2460	1
1	16006	2460	0
1	16011	2461	1
1	16013	2461	0
1	16018	2462	1
1	16021	2462	0
1	16028	2463	1
1	16036	2465	2
1	16047	2467	1
1	16055	2468	2
1	16057	2468	1
1	16069	2469	0
1	16165	2484	1
1	16165	2484	0
1	16166	2484	1
1	16177	2485	0
1	16249	2495	1
1	16249	2495	0
1	16331	2507	1
1	16331	2507	0
1	16332	2507	1
1	16343	2508	0
1	16360	2510	1
1	16360	2510	0
1	16361	2510	1
1	16373	2511	0
1	16397	2517	1
1	16397	2517	0
1	16398	2517	1
1	16408	2518	0
1	16436	2524	1
1	16436	2524	0
1	16452	2526	1
1	16452	2526	0
1	16523	2536	1
1	16523	2536	0
1	16534	2538	1
1	16534	2538	0
1	16568	2545	1
1	16568	2545	0
1	16622	2555	1
1	16622	2555	0
1	16741	2575	1
1	16741	2575	0
1	16767	2578	1
1	16767	2578	0
1	16822	2585	1
1	16822	2585	0
1	16853	2589	1
1	16853	2589	0
1	16862	2590	1
1	16864	2590	0
1	16873	2591	1
1	16875	2591	0
1	16884	2592	1
1	16886	2592	0
1	16899	2595	1
1	16899	2595	0
1	16900	2595	1
1	16910	2596	0
1	16934	2601	1
1	16934	2601	0
1	16953	2605	1
1	16953	2605	0
1	16968	2607	1
1	16968	2607	0
1	16969	2607	1
1	17005	2612	0
1	17031	2615	1
1	17031	2615	0
1	17086	2628	1
1	17086	2628	0
1	17103	2630	1
1	17103	2630	0
1	17117	2632	1
1	17117	2632	0
1	17137	2636	1
1	17137	2636	0
1	17151	2638	1
1	17151	2638	0
1	17194	2648	1
1	17194	2648	0
1	17231	2653	1
1	17231	2653	0
1	17248	2655	1
1	17248	2655	0
1	17288	2666	1
1	17288	2666	0
1	17289	2666	1
1	17295	2667	0
1	17308	2671	1
1	17308	2671	0
1	17319	2674	1
1	17319	2674	0
1	17346	2682	1
1	17346	2682	0
1	17427	2693	1
1	17427	2693	0
1	17458	2697	1
1	17458	2697	0
1	17581	2720	1
1	17581	2720	0