version 3
run Experimentos-669-20260514-09:21:29-6772
attr configname Experimentos
attr datetime 20260514-09:21:29
attr datetimef 20260514-092129
attr experiment Experimentos
attr inifile TwoQueues.ini
attr iterationvars "$p=0.7, $q=0.2, $Y=30, $m=3"
attr iterationvarsd p=0.7/q=0.2/Y=30/m=3
attr iterationvarsf p=0.7,q=0.2,Y=30,m=3-
attr measurement "$p=0.7, $q=0.2, $Y=30, $m=3"
attr network TwoQueues
attr processid 6772
attr repetition 9
attr replication #9
attr resultdir results
attr runnumber 669
attr seedset 669
itervar Y 30
itervar m 3
itervar p 0.7
itervar q 0.2
config description "Barrido completo de parámetros Proyecto 12"
config **.source1.p 0.7
config **.source1.q 0.2
config **.source2.p 0.6
config **.source2.q 0.2
config **.serverWithMaintenance.Y 30
config **.serverWithMaintenance.m 3
config network TwoQueues
config cpu-time-limit 5000s
config sim-time-limit 5000s
config warmup-period 400s
config repeat 20
config output-scalar-file results/Experimentos-p=0.7,q=0.2,Y=30,m=3--#9.sca
config output-vector-file results/Experimentos-p=0.7,q=0.2,Y=30,m=3--#9.vec
config **.vector-recording true

vector 0 TwoQueues.serverWithMaintenance residenceTime2:vector ETV
attr recordingmode vector
attr source delay2
attr title "Residence Time Class 2"
vector 1 TwoQueues.queue2 queueLengthStats:vector ETV
attr recordingmode vector
attr source qlen
attr title "Average Queue Length"
vector 2 TwoQueues.queue1 queueLengthStats:vector ETV
attr recordingmode vector
attr source qlen
attr title "Average Queue Length"
vector 3 TwoQueues.server residenceTime1:vector ETV
attr recordingmode vector
attr source delay1
attr title "Residence Time Class 1"
vector 4 TwoQueues.server throughputStats1:vector ETV
attr recordingmode vector
attr source throughput1
attr title "Throughput Class 1"
0	2094	402	1
0	2102	403	1
0	2113	404	2
0	2131	406	1
0	2142	407	1
0	2227	430	1
0	2287	446	1
0	2297	447	1
0	2363	464	1
0	2401	473	1
0	2410	475	1
0	2438	479	1
0	2450	481	1
0	2507	489	1
0	2592	506	1
0	2602	508	1
0	2608	509	2
0	2638	514	1
0	2645	515	1
0	2680	525	1
0	2693	528	1
0	2724	537	1
0	2767	547	1
0	2777	548	2
0	2787	549	2
0	2799	550	2
0	2810	551	1
0	2841	558	1
0	2858	560	1
0	2869	561	1
0	2892	567	1
0	2906	570	1
0	2970	587	1
0	2999	593	1
0	3058	606	1
0	3101	614	1
0	3125	617	1
0	3142	619	1
0	3194	628	1
0	3204	629	1
0	3248	635	1
0	3280	642	1
0	3290	643	1
0	3301	645	1
0	3352	658	1
0	3381	664	1
0	3391	665	1
0	3464	676	1
0	3476	677	1
0	3486	678	2
0	3526	684	1
0	3537	685	1
0	3546	686	2
0	3580	693	1
0	3621	702	1
0	3627	703	2
0	3643	707	1
0	3654	708	2
0	3721	719	1
0	3733	720	1
0	3760	724	4
0	3773	728	1
0	3796	734	1
0	3802	735	2
0	3879	750	1
0	3900	754	1
0	3907	755	1
0	3918	758	1
0	3945	764	1
0	3977	770	1
0	3997	775	1
0	4010	778	1
0	4024	779	1
0	4034	780	2
0	4048	783	1
0	4066	787	1
0	4081	791	1
0	4104	796	1
0	4111	797	1
0	4118	798	1
0	4131	799	1
0	4165	804	1
0	4191	810	1
0	4201	811	2
0	4220	814	1
0	4231	815	1
0	4261	822	1
0	4332	840	1
0	4406	857	1
0	4419	860	1
0	4448	865	1
0	4455	866	1
0	4481	873	1
0	4535	885	1
0	4574	893	1
0	4597	896	1
0	4639	903	1
0	4667	912	1
0	4695	916	1
0	4705	917	2
0	4719	918	3
0	4729	919	2
0	4738	920	3
0	4762	923	1
0	4771	924	2
0	4780	926	1
0	4868	944	1
0	4890	948	1
0	4896	949	2
0	4903	950	1
0	4920	952	1
0	4931	953	1
0	4990	970	1
0	5014	978	1
0	5023	980	1
0	5032	982	1
0	5046	985	1
0	5070	989	1
0	5113	995	1
0	5129	997	1
0	5170	1003	1
0	5187	1009	1
0	5196	1011	1
0	5209	1014	1
0	5279	1024	1
0	5297	1029	1
0	5335	1034	1
0	5344	1035	2
0	5373	1041	1
0	5394	1045	1
0	5404	1046	1
0	5414	1047	1
0	5421	1048	2
0	5430	1049	2
0	5500	1065	1
0	5506	1066	2
0	5556	1075	1
0	5568	1077	1
0	5579	1079	1
0	5591	1080	1
0	5610	1082	1
0	5651	1088	1
0	5657	1089	2
0	5692	1098	1
0	5702	1099	1
0	5728	1106	1
0	5740	1108	1
0	5750	1109	1
0	5760	1110	1
0	5766	1111	2
0	5780	1115	4
0	5805	1119	1
0	5839	1125	1
0	5849	1126	2
0	5868	1128	1
0	5898	1134	1
0	5907	1136	1
0	6011	1158	1
0	6026	1163	1
0	6035	1165	1
0	6098	1183	1
0	6128	1188	1
0	6152	1192	1
0	6161	1193	2
0	6219	1207	1
0	6242	1210	1
0	6252	1211	1
0	6280	1216	1
0	6289	1217	2
0	6297	1218	1
0	6306	1219	2
0	6333	1224	1
0	6344	1226	1
0	6375	1232	1
0	6386	1233	2
0	6396	1234	2
0	6415	1240	1
0	6425	1241	1
0	6435	1242	1
0	6444	1243	2
0	6515	1256	1
0	6543	1261	1
0	6582	1269	1
0	6625	1282	1
0	6634	1284	1
0	6658	1291	1
0	6671	1294	1
0	6694	1297	1
0	6713	1299	1
0	6777	1309	1
0	6835	1318	1
0	6846	1319	1
0	6869	1324	1
0	6900	1329	1
0	6906	1330	2
0	6920	1332	1
0	6949	1338	1
0	6970	1341	1
0	6980	1342	1
0	6988	1343	1
0	6995	1344	2
0	7001	1345	2
0	7031	1355	1
0	7046	1360	1
0	7063	1366	1
0	7153	1381	1
0	7160	1382	1
0	7174	1385	1
0	7254	1399	1
0	7270	1401	1
0	7287	1405	2
0	7298	1407	1
0	7334	1416	1
0	7422	1435	1
0	7434	1436	1
0	7445	1437	1
0	7475	1444	1
0	7485	1445	1
0	7497	1446	1
0	7566	1461	1
0	7580	1464	1
0	7596	1466	1
0	7641	1477	1
0	7649	1478	1
0	7655	1479	2
0	7664	1481	1
0	7689	1485	1
0	7719	1491	1
0	7756	1496	1
0	7766	1497	1
0	7777	1499	1
0	7794	1501	1
0	7816	1507	1
0	7827	1510	1
0	7834	1511	1
0	7878	1518	1
0	7928	1528	1
0	7957	1535	1
0	7968	1538	1
0	8001	1548	1
0	8039	1558	1
0	8061	1564	1
0	8096	1570	1
0	8113	1572	1
0	8119	1573	2
0	8160	1581	1
0	8180	1585	1
0	8217	1595	1
0	8265	1606	1
0	8291	1609	1
0	8315	1612	1
0	8326	1613	1
0	8346	1616	1
0	8352	1617	2
0	8359	1618	1
0	8378	1625	1
0	8440	1636	1
0	8460	1638	1
0	8485	1641	1
0	8495	1642	2
0	8560	1656	1
0	8575	1661	1
0	8582	1662	1
0	8591	1664	1
0	8606	1669	1
0	8623	1675	1
0	8645	1681	1
0	8667	1685	1
0	8720	1692	1
0	8802	1703	1
0	8836	1707	2
0	8861	1710	1
0	8887	1713	1
0	8904	1715	1
0	8917	1716	1
0	8965	1723	1
0	8984	1727	1
0	8990	1728	2
0	9001	1731	1
0	9008	1732	1
0	9015	1733	1
0	9029	1735	1
0	9043	1737	1
0	9052	1739	1
0	9059	1740	1
0	9073	1743	1
0	9105	1748	1
0	9134	1755	1
0	9141	1756	1
0	9195	1768	1
0	9202	1769	1
0	9269	1784	1
0	9299	1789	1
0	9381	1807	1
0	9390	1808	2
0	9399	1810	1
0	9426	1816	1
0	9433	1817	1
0	9442	1819	1
0	9455	1823	1
0	9497	1831	1
0	9509	1833	1
0	9567	1846	1
0	9576	1848	1
0	9608	1854	1
0	9639	1862	1
0	9649	1863	1
0	9667	1866	1
0	9702	1872	1
0	9729	1877	1
0	9744	1882	1
0	9777	1890	1
0	9789	1891	1
0	9845	1899	1
0	9859	1902	1
0	9895	1909	1
0	9925	1914	1
0	9945	1919	1
0	9972	1926	1
0	9990	1928	1
0	10024	1933	1
0	10047	1936	1
0	10069	1942	1
0	10081	1944	1
0	10093	1945	1
0	10124	1952	1
0	10137	1955	1
0	10167	1960	1
0	10180	1961	1
0	10189	1962	2
0	10203	1966	3
0	10212	1968	1
0	10219	1969	1
0	10226	1970	1
0	10255	1977	1
0	10268	1981	1
0	10285	1987	1
0	10308	1991	1
0	10335	2002	1
0	10404	2018	1
0	10438	2030	1
0	10457	2034	1
0	10479	2038	1
0	10489	2039	1
0	10533	2049	1
0	10561	2055	1
0	10578	2058	1
0	10587	2059	2
0	10602	2061	1
0	10630	2067	1
0	10653	2071	1
0	10673	2076	1
0	10682	2078	1
0	10715	2087	1
0	10770	2102	1
0	10788	2106	1
0	10802	2108	1
0	10833	2118	1
0	10844	2119	2
0	10867	2122	1
0	10902	2129	1
0	10921	2134	1
0	10927	2135	2
0	10950	2138	1
0	10962	2139	1
0	10974	2140	1
0	10994	2146	1
0	11008	2150	1
0	11014	2151	2
0	11023	2153	1
0	11047	2156	1
0	11078	2163	1
0	11096	2167	1
0	11204	2186	1
0	11259	2198	1
0	11282	2201	1
0	11307	2204	1
0	11330	2209	1
0	11363	2217	1
0	11397	2224	1
0	11430	2231	1
0	11439	2232	2
0	11452	2235	1
0	11463	2238	1
0	11492	2244	1
0	11523	2248	1
0	11532	2250	1
0	11539	2251	1
0	11556	2253	1
0	11588	2257	1
0	11611	2261	4
0	11617	2262	3
0	11669	2274	1
0	11725	2285	1
0	11755	2291	1
0	11826	2309	1
0	11871	2316	1
0	11877	2317	2
0	11884	2318	1
0	11919	2328	1
0	11926	2329	1
0	11933	2330	1
0	11953	2332	1
0	12010	2340	1
0	12134	2362	1
0	12262	2382	1
0	12292	2389	1
0	12298	2390	2
0	12312	2392	1
0	12360	2400	1
0	12366	2401	2
0	12376	2402	3
0	12415	2411	1
0	12442	2419	1
0	12453	2420	2
0	12461	2421	2
0	12467	2422	3
0	12474	2423	1
0	12490	2426	1
0	12525	2436	1
0	12543	2442	1
0	12568	2447	1
0	12610	2458	1
0	12624	2462	1
0	12630	2463	2
0	12648	2468	1
0	12657	2469	2
0	12672	2473	1
0	12682	2474	1
0	12737	2485	1
0	12748	2486	2
0	12924	2529	1
0	12949	2535	1
0	12962	2538	1
0	12973	2539	1
0	12982	2540	2
0	13005	2543	1
0	13030	2546	1
0	13079	2555	1
0	13086	2556	1
0	13097	2559	1
0	13117	2563	1
0	13141	2566	1
0	13229	2585	1
0	13240	2587	1
0	13258	2591	1
0	13272	2594	1
0	13314	2605	1
0	13321	2606	1
0	13344	2610	1
0	13365	2615	1
0	13415	2630	1
0	13565	2665	1
0	13609	2671	1
0	13645	2679	1
0	13660	2682	1
0	13669	2683	2
0	13689	2687	1
0	13749	2707	1
0	13762	2710	1
0	13778	2714	1
0	13804	2719	1
0	13810	2720	2
0	13838	2724	1
0	13856	2728	1
0	13880	2731	1
0	13911	2735	1
0	13918	2736	2
0	13924	2737	2
0	13946	2743	1
0	14005	2760	1
0	14028	2763	1
0	14080	2773	1
0	14226	2803	1
0	14250	2809	1
0	14265	2812	1
0	14274	2813	2
0	14292	2816	1
0	14303	2819	1
0	14358	2834	1
0	14373	2838	3
0	14379	2839	3
0	14395	2841	1
0	14405	2842	1
0	14428	2845	1
0	14513	2866	1
0	14541	2875	1
0	14549	2876	1
0	14556	2877	2
0	14565	2878	2
0	14575	2879	1
0	14581	2880	2
0	14614	2889	1
0	14629	2894	1
0	14680	2906	1
0	14721	2916	1
0	14797	2929	1
0	14824	2933	1
0	14836	2935	1
0	14846	2936	1
0	14864	2938	1
0	14883	2942	1
0	14908	2945	1
0	14928	2948	1
0	14934	2949	2
0	14943	2951	1
0	14952	2953	1
0	14972	2956	1
0	15001	2962	1
0	15011	2963	2
0	15026	2967	5
0	15049	2971	1
0	15079	2976	1
0	15090	2978	1
0	15121	2982	1
0	15132	2983	1
0	15143	2984	1
0	15154	2986	1
0	15204	3001	1
0	15211	3002	1
0	15293	3017	1
0	15334	3025	1
0	15367	3030	1
0	15376	3032	1
0	15403	3039	1
0	15444	3047	1
0	15468	3053	1
0	15493	3056	1
0	15549	3066	1
0	15586	3075	1
0	15635	3081	1
0	15697	3095	1
0	15717	3098	1
0	15833	3118	1
0	15874	3126	1
0	15881	3127	1
0	15895	3131	1
0	15901	3132	2
0	15915	3134	1
0	16092	3174	1
0	16111	3178	3
0	16135	3185	1
0	16152	3187	1
0	16172	3190	1
0	16184	3191	1
0	16235	3200	1
0	16245	3201	1
0	16281	3209	1
0	16304	3218	1
0	16313	3220	1
0	16327	3222	1
0	16345	3225	1
0	16358	3226	1
0	16390	3230	1
0	16402	3232	1
0	16413	3233	1
0	16463	3245	1
0	16474	3247	1
0	16521	3257	1
0	16532	3258	2
0	16541	3259	3
0	16571	3263	1
0	16581	3264	1
0	16598	3269	1
0	16610	3270	1
0	16620	3271	1
0	16639	3277	1
0	16660	3281	1
0	16684	3284	1
0	16695	3285	1
0	16779	3306	1
0	16811	3311	1
0	16822	3313	1
0	16832	3314	1
0	16847	3319	1
0	16872	3323	1
0	16951	3337	1
0	16970	3339	1
0	16988	3342	1
0	17008	3347	1
0	17015	3348	1
0	17099	3359	1
0	17157	3367	1
0	17167	3368	2
0	17179	3370	1
0	17197	3373	1
0	17210	3375	1
0	17216	3376	2
0	17255	3383	1
0	17274	3386	1
0	17288	3387	1
0	17316	3391	1
0	17374	3401	1
0	17412	3409	1
0	17423	3410	1
0	17472	3419	1
0	17495	3424	1
0	17520	3428	1
0	17551	3435	1
0	17570	3438	1
0	17584	3442	3
0	17593	3444	1
0	17608	3448	1
0	17628	3450	1
0	17658	3459	1
0	17665	3460	1
0	17701	3468	1
0	17708	3469	1
0	17738	3473	1
0	17770	3478	1
0	17781	3479	1
0	17806	3483	1
0	17868	3495	1
0	17878	3496	2
0	17884	3497	2
0	17972	3512	1
0	17999	3518	1
0	18105	3534	1
0	18149	3541	1
0	18159	3542	1
0	18170	3545	1
0	18182	3548	1
0	18193	3549	2
0	18204	3550	2
0	18212	3551	3
0	18219	3552	1
0	18230	3555	1
0	18271	3568	1
0	18355	3588	1
0	18372	3590	1
0	18517	3618	1
0	18542	3623	1
0	18550	3624	1
0	18556	3625	2
0	18606	3635	1
0	18622	3638	1
0	18638	3641	1
0	18650	3643	1
0	18693	3650	1
0	18703	3651	1
0	18710	3652	1
0	18723	3656	1
0	18756	3664	1
0	18895	3694	1
0	18901	3695	2
0	18945	3703	1
0	18956	3704	1
0	18975	3707	1
0	19083	3731	1
0	19121	3736	1
0	19130	3737	2
0	19184	3747	1
0	19199	3748	1
0	19210	3749	2
0	19220	3750	3
0	19286	3763	1
0	19298	3764	2
0	19308	3765	2
0	19318	3766	1
0	19325	3767	1
0	19346	3771	1
0	19374	3775	1
0	19397	3779	1
0	19413	3783	1
0	19421	3784	1
0	19428	3785	2
0	19435	3786	2
0	19444	3787	2
0	19462	3790	1
0	19478	3792	1
0	19492	3795	1
0	19503	3796	1
0	19533	3803	1
0	19551	3807	1
0	19576	3812	1
0	19667	3830	1
0	19729	3841	1
0	19755	3849	1
0	19785	3854	1
0	19827	3865	1
0	19842	3870	1
0	19853	3873	1
0	19862	3875	1
0	19903	3882	1
0	19932	3889	1
0	19942	3890	1
0	19955	3894	1
0	20034	3910	1
0	20057	3914	1
0	20106	3926	1
0	20184	3943	1
0	20191	3944	1
0	20232	3952	1
0	20251	3958	1
0	20257	3959	2
0	20263	3960	3
0	20277	3962	1
0	20288	3965	1
0	20316	3974	1
0	20332	3977	1
0	20349	3979	1
0	20372	3982	1
0	20379	3983	1
0	20386	3984	1
0	20399	3988	1
0	20409	3989	1
0	20429	3992	1
0	20441	3994	1
0	20450	3996	1
0	20484	4003	1
0	20525	4011	1
0	20532	4012	1
0	20570	4021	1
0	20577	4022	1
0	20603	4030	1
0	20614	4033	1
0	20621	4034	1
0	20636	4038	1
0	20650	4040	1
0	20679	4048	1
0	20705	4052	4
0	20735	4058	1
0	20816	4076	1
0	20860	4082	1
0	20872	4084	1
0	20894	4090	1
0	20955	4098	1
0	20999	4105	1
0	21013	4107	1
0	21078	4126	1
0	21107	4130	1
0	21116	4131	2
0	21158	4142	1
0	21261	4163	1
0	21267	4164	2
0	21303	4173	1
0	21332	4177	1
0	21343	4178	2
0	21385	4183	1
0	21395	4184	2
0	21463	4197	1
0	21478	4202	1
0	21488	4203	1
0	21522	4209	1
0	21538	4211	1
0	21550	4213	1
0	21588	4222	1
0	21599	4223	1
0	21610	4224	1
0	21665	4238	1
0	21696	4243	1
0	21708	4244	1
0	21719	4245	2
0	21728	4246	2
0	21734	4247	2
0	21744	4248	1
0	21854	4267	1
0	21861	4268	1
0	21874	4271	1
0	21931	4282	1
0	21982	4288	1
0	22031	4298	1
0	22055	4303	1
0	22079	4306	1
0	22114	4312	1
0	22134	4316	1
0	22169	4322	1
0	22180	4325	1
0	22220	4335	1
0	22237	4337	1
0	22246	4338	2
0	22289	4348	1
0	22318	4354	1
0	22337	4357	1
0	22374	4363	1
0	22385	4364	1
0	22399	4366	1
0	22442	4376	1
0	22508	4389	1
0	22515	4390	1
0	22548	4396	1
0	22615	4407	1
0	22669	4419	1
0	22676	4420	1
0	22693	4422	1
0	22707	4423	1
0	22719	4424	1
0	22824	4450	1
0	22842	4452	1
0	22861	4455	1
0	22870	4457	1
0	22881	4458	1
0	22938	4471	1
0	22950	4474	1
0	22956	4475	2
0	22974	4478	1
0	23071	4492	1
0	23131	4501	1
0	23212	4518	1
0	23281	4530	1
0	23304	4534	1
0	23362	4548	1
0	23408	4560	1
0	23444	4569	1
0	23453	4571	1
0	23477	4578	1
0	23485	4579	1
0	23495	4580	2
0	23506	4581	2
0	23517	4583	1
0	23538	4587	4
0	23545	4588	2
0	23551	4589	3
0	23557	4590	3
0	23573	4593	1
0	23598	4598	1
0	23642	4604	1
0	23652	4605	2
0	23728	4625	1
0	23735	4626	2
0	23741	4627	2
0	23816	4653	1
0	23947	4679	1
0	23978	4687	1
0	23991	4688	1
0	24049	4698	1
0	24058	4699	2
0	24091	4707	1
0	24108	4712	1
0	24124	4716	1
0	24137	4720	1
0	24190	4730	1
0	24220	4738	1
0	24297	4754	1
0	24307	4755	1
0	24354	4765	1
0	24368	4768	1
0	24393	4772	1
0	24407	4775	1
0	24414	4776	1
0	24442	4780	1
0	24455	4781	1
0	24484	4785	1
0	24490	4786	2
0	24520	4796	1
0	24537	4798	1
0	24546	4799	2
0	24595	4813	1
0	24602	4814	2
0	24608	4815	2
0	24639	4819	1
0	24657	4822	1
0	24683	4826	1
0	24694	4827	1
0	24740	4841	1
0	24747	4842	1
0	24774	4847	1
0	24795	4851	1
0	24828	4860	1
0	24846	4864	1
0	24862	4867	1
0	24912	4878	1
0	24985	4895	1
0	24997	4897	1
0	25006	4899	1
0	25019	4900	1
0	25030	4901	1
0	25124	4919	1
0	25158	4924	1
0	25172	4927	1
0	25239	4941	1
0	25279	4949	1
0	25300	4953	1
0	25326	4957	1
0	25348	4962	1
0	25365	4964	1
0	25381	4966	1
0	25422	4979	1
0	25455	4987	1
0	25473	4991	1
0	25521	4997	1
0	25530	4998	2
1	2090	401	1
1	2090	401	0
1	2095	402	1
1	2096	402	2
1	2098	402	1
1	2107	403	0
1	2123	405	1
1	2123	405	0
1	2133	406	1
1	2135	406	0
1	2221	429	1
1	2221	429	0
1	2281	445	1
1	2281	445	0
1	2288	446	1
1	2291	446	0
1	2359	463	1
1	2359	463	0
1	2397	472	1
1	2397	472	0
1	2406	474	1
1	2406	474	0
1	2432	478	1
1	2432	478	0
1	2443	480	1
1	2443	480	0
1	2499	488	1
1	2499	488	0
1	2588	505	1
1	2588	505	0
1	2597	507	1
1	2597	507	0
1	2598	507	1
1	2604	508	0
1	2634	513	1
1	2634	513	0
1	2639	514	1
1	2641	514	0
1	2676	524	1
1	2676	524	0
1	2687	527	1
1	2687	527	0
1	2720	536	1
1	2720	536	0
1	2760	546	1
1	2760	546	0
1	2761	546	1
1	2769	547	2
1	2771	547	1
1	2778	548	2
1	2781	548	1
1	2793	549	0
1	2800	550	1
1	2804	550	0
1	2835	557	1
1	2835	557	0
1	2851	559	1
1	2851	559	0
1	2860	560	1
1	2862	560	0
1	2886	566	1
1	2886	566	0
1	2902	569	1
1	2902	569	0
1	2964	586	1
1	2964	586	0
1	2993	592	1
1	2993	592	0
1	3054	605	1
1	3054	605	0
1	3094	613	1
1	3094	613	0
1	3119	616	1
1	3119	616	0
1	3133	618	1
1	3133	618	0
1	3188	627	1
1	3188	627	0
1	3196	628	1
1	3198	628	0
1	3240	634	1
1	3240	634	0
1	3276	641	1
1	3276	641	0
1	3281	642	1
1	3284	642	0
1	3297	644	1
1	3297	644	0
1	3348	657	1
1	3348	657	0
1	3375	663	1
1	3375	663	0
1	3383	664	1
1	3385	664	0
1	3456	675	1
1	3456	675	0
1	3466	676	1
1	3467	676	2
1	3469	676	1
1	3479	677	0
1	3519	683	1
1	3519	683	0
1	3528	684	1
1	3529	684	2
1	3531	684	1
1	3540	685	0
1	3571	692	1
1	3571	692	0
1	3616	701	1
1	3616	701	0
1	3617	701	1
1	3623	702	0
1	3636	706	1
1	3636	706	0
1	3637	706	1
1	3647	707	0
1	3715	718	1
1	3715	718	0
1	3723	719	1
1	3726	719	0
1	3735	720	1
1	3756	723	0
1	3769	727	1
1	3769	727	0
1	3791	733	1
1	3791	733	0
1	3792	733	1
1	3798	734	0
1	3873	749	1
1	3873	749	0
1	3896	753	1
1	3896	753	0
1	3901	754	1
1	3903	754	0
1	3914	757	1
1	3914	757	0
1	3939	763	1
1	3939	763	0
1	3971	769	1
1	3971	769	0
1	3993	774	1
1	3993	774	0
1	4004	777	1
1	4004	777	0
1	4012	778	1
1	4013	778	2
1	4017	778	1
1	4027	779	0
1	4044	782	1
1	4044	782	0
1	4062	786	1
1	4062	786	0
1	4075	790	1
1	4075	790	0
1	4100	795	1
1	4100	795	0
1	4105	796	1
1	4107	796	0
1	4112	797	1
1	4114	797	0
1	4119	798	1
1	4125	798	0
1	4159	803	1
1	4159	803	0
1	4183	809	1
1	4183	809	0
1	4184	809	1
1	4194	810	0
1	4214	813	1
1	4214	813	0
1	4221	814	1
1	4225	814	0
1	4257	821	1
1	4257	821	0
1	4328	839	1
1	4328	839	0
1	4402	856	1
1	4402	856	0
1	4413	859	1
1	4413	859	0
1	4444	864	1
1	4444	864	0
1	4449	865	1
1	4451	865	0
1	4473	872	1
1	4473	872	0
1	4527	884	1
1	4527	884	0
1	4568	892	1
1	4568	892	0
1	4590	895	1
1	4590	895	0
1	4635	902	1
1	4635	902	0
1	4663	911	1
1	4663	911	0
1	4686	915	1
1	4686	915	0
1	4687	915	1
1	4688	915	2
1	4698	916	1
1	4707	917	2
1	4708	917	3
1	4712	917	2
1	4722	918	1
1	4732	919	0
1	4754	922	1
1	4754	922	0
1	4755	922	1
1	4765	923	0
1	4776	925	1
1	4776	925	0
1	4860	943	1
1	4860	943	0
1	4885	947	1
1	4885	947	0
1	4886	947	1
1	4892	948	0
1	4897	949	1
1	4899	949	0
1	4913	951	1
1	4913	951	0
1	4922	952	1
1	4924	952	0
1	4983	969	1
1	4983	969	0
1	5010	977	1
1	5010	977	0
1	5019	979	1
1	5019	979	0
1	5028	981	1
1	5028	981	0
1	5039	984	1
1	5039	984	0
1	5062	988	1
1	5062	988	0
1	5107	994	1
1	5107	994	0
1	5121	996	1
1	5121	996	0
1	5164	1002	1
1	5164	1002	0
1	5183	1008	1
1	5183	1008	0
1	5192	1010	1
1	5192	1010	0
1	5203	1013	1
1	5203	1013	0
1	5271	1023	1
1	5271	1023	0
1	5293	1028	1
1	5293	1028	0
1	5326	1033	1
1	5326	1033	0
1	5327	1033	1
1	5338	1034	0
1	5366	1040	1
1	5366	1040	0
1	5390	1044	1
1	5390	1044	0
1	5395	1045	1
1	5398	1045	0
1	5405	1046	1
1	5406	1046	2
1	5410	1046	1
1	5415	1047	2
1	5417	1047	1
1	5424	1048	0
1	5495	1064	1
1	5495	1064	0
1	5496	1064	1
1	5502	1065	0
1	5549	1074	1
1	5549	1074	0
1	5564	1076	1
1	5564	1076	0
1	5573	1078	1
1	5573	1078	0
1	5581	1079	1
1	5584	1079	0
1	5603	1081	1
1	5603	1081	0
1	5644	1087	1
1	5644	1087	0
1	5645	1087	1
1	5653	1088	0
1	5686	1097	1
1	5686	1097	0
1	5694	1098	1
1	5696	1098	0
1	5722	1105	1
1	5722	1105	0
1	5736	1107	1
1	5736	1107	0
1	5741	1108	1
1	5744	1108	0
1	5751	1109	1
1	5752	1109	2
1	5756	1109	1
1	5762	1110	0
1	5767	1111	1
1	5776	1114	0
1	5797	1118	1
1	5797	1118	0
1	5829	1124	1
1	5829	1124	0
1	5830	1124	1
1	5842	1125	0
1	5861	1127	1
1	5861	1127	0
1	5894	1133	1
1	5894	1133	0
1	5903	1135	1
1	5903	1135	0
1	6005	1157	1
1	6005	1157	0
1	6022	1162	1
1	6022	1162	0
1	6031	1164	1
1	6031	1164	0
1	6092	1182	1
1	6092	1182	0
1	6120	1187	1
1	6120	1187	0
1	6145	1191	1
1	6145	1191	0
1	6146	1191	1
1	6155	1192	0
1	6215	1206	1
1	6215	1206	0
1	6235	1209	1
1	6235	1209	0
1	6244	1210	1
1	6246	1210	0
1	6271	1215	1
1	6271	1215	0
1	6272	1215	1
1	6283	1216	0
1	6290	1217	1
1	6291	1217	2
1	6293	1217	1
1	6300	1218	0
1	6327	1223	1
1	6327	1223	0
1	6338	1225	1
1	6338	1225	0
1	6370	1231	1
1	6370	1231	0
1	6371	1231	1
1	6376	1232	2
1	6380	1232	1
1	6390	1233	0
1	6411	1239	1
1	6411	1239	0
1	6416	1240	1
1	6419	1240	0
1	6426	1241	1
1	6427	1241	2
1	6431	1241	1
1	6438	1242	0
1	6509	1255	1
1	6509	1255	0
1	6539	1260	1
1	6539	1260	0
1	6575	1268	1
1	6575	1268	0
1	6621	1281	1
1	6621	1281	0
1	6630	1283	1
1	6630	1283	0
1	6654	1290	1
1	6654	1290	0
1	6665	1293	1
1	6665	1293	0
1	6686	1296	1
1	6686	1296	0
1	6706	1298	1
1	6706	1298	0
1	6768	1308	1
1	6768	1308	0
1	6827	1317	1
1	6827	1317	0
1	6837	1318	1
1	6839	1318	0
1	6863	1323	1
1	6863	1323	0
1	6893	1328	1
1	6893	1328	0
1	6894	1328	1
1	6902	1329	0
1	6914	1331	1
1	6914	1331	0
1	6943	1337	1
1	6943	1337	0
1	6962	1340	1
1	6962	1340	0
1	6972	1341	1
1	6974	1341	0
1	6981	1342	1
1	6982	1342	2
1	6984	1342	1
1	6989	1343	2
1	6991	1343	1
1	6997	1344	0
1	7027	1354	1
1	7027	1354	0
1	7042	1359	1
1	7042	1359	0
1	7059	1365	1
1	7059	1365	0
1	7149	1380	1
1	7149	1380	0
1	7154	1381	1
1	7156	1381	0
1	7167	1384	1
1	7167	1384	0
1	7250	1398	1
1	7250	1398	0
1	7262	1400	1
1	7262	1400	0
1	7279	1403	1
1	7283	1404	0
1	7292	1406	1
1	7292	1406	0
1	7330	1415	1
1	7330	1415	0
1	7416	1434	1
1	7416	1434	0
1	7423	1435	1
1	7428	1435	0
1	7435	1436	1
1	7439	1436	0
1	7471	1443	1
1	7471	1443	0
1	7476	1444	1
1	7479	1444	0
1	7486	1445	1
1	7491	1445	0
1	7559	1460	1
1	7559	1460	0
1	7576	1463	1
1	7576	1463	0
1	7589	1465	1
1	7589	1465	0
1	7637	1476	1
1	7637	1476	0
1	7642	1477	1
1	7643	1477	2
1	7645	1477	1
1	7651	1478	0
1	7660	1480	1
1	7660	1480	0
1	7682	1484	1
1	7682	1484	0
1	7715	1490	1
1	7715	1490	0
1	7749	1495	1
1	7749	1495	0
1	7758	1496	1
1	7760	1496	0
1	7771	1498	1
1	7771	1498	0
1	7788	1500	1
1	7788	1500	0
1	7812	1506	1
1	7812	1506	0
1	7823	1509	1
1	7823	1509	0
1	7828	1510	1
1	7830	1510	0
1	7872	1517	1
1	7872	1517	0
1	7924	1527	1
1	7924	1527	0
1	7953	1534	1
1	7953	1534	0
1	7964	1537	1
1	7964	1537	0
1	7994	1547	1
1	7994	1547	0
1	8035	1557	1
1	8035	1557	0
1	8057	1563	1
1	8057	1563	0
1	8088	1569	1
1	8088	1569	0
1	8106	1571	1
1	8106	1571	0
1	8107	1571	1
1	8115	1572	0
1	8156	1580	1
1	8156	1580	0
1	8172	1584	1
1	8172	1584	0
1	8209	1594	1
1	8209	1594	0
1	8261	1605	1
1	8261	1605	0
1	8283	1608	1
1	8283	1608	0
1	8307	1611	1
1	8307	1611	0
1	8317	1612	1
1	8319	1612	0
1	8339	1615	1
1	8339	1615	0
1	8340	1615	1
1	8348	1616	0
1	8353	1617	1
1	8355	1617	0
1	8374	1624	1
1	8374	1624	0
1	8436	1635	1
1	8436	1635	0
1	8453	1637	1
1	8453	1637	0
1	8476	1640	1
1	8476	1640	0
1	8477	1640	1
1	8488	1641	0
1	8554	1655	1
1	8554	1655	0
1	8571	1660	1
1	8571	1660	0
1	8576	1661	1
1	8578	1661	0
1	8587	1663	1
1	8587	1663	0
1	8602	1668	1
1	8602	1668	0
1	8619	1674	1
1	8619	1674	0
1	8639	1680	1
1	8639	1680	0
1	8659	1684	1
1	8659	1684	0
1	8711	1691	1
1	8711	1691	0
1	8791	1702	1
1	8791	1702	0
1	8821	1705	1
1	8829	1706	0
1	8854	1709	1
1	8854	1709	0
1	8878	1712	1
1	8878	1712	0
1	8897	1714	1
1	8897	1714	0
1	8906	1715	1
1	8910	1715	0
1	8959	1722	1
1	8959	1722	0
1	8979	1726	1
1	8979	1726	0
1	8980	1726	1
1	8986	1727	0
1	8997	1730	1
1	8997	1730	0
1	9002	1731	1
1	9004	1731	0
1	9009	1732	1
1	9011	1732	0
1	9023	1734	1
1	9023	1734	0
1	9037	1736	1
1	9037	1736	0
1	9048	1738	1
1	9048	1738	0
1	9053	1739	1
1	9055	1739	0
1	9066	1742	1
1	9066	1742	0
1	9099	1747	1
1	9099	1747	0
1	9130	1754	1
1	9130	1754	0
1	9135	1755	1
1	9137	1755	0
1	9189	1767	1
1	9189	1767	0
1	9196	1768	1
1	9198	1768	0
1	9262	1783	1
1	9262	1783	0
1	9291	1788	1
1	9291	1788	0
1	9373	1806	1
1	9373	1806	0
1	9374	1806	1
1	9384	1807	0
1	9395	1809	1
1	9395	1809	0
1	9420	1815	1
1	9420	1815	0
1	9427	1816	1
1	9429	1816	0
1	9438	1818	1
1	9438	1818	0
1	9451	1822	1
1	9451	1822	0
1	9493	1830	1
1	9493	1830	0
1	9502	1832	1
1	9502	1832	0
1	9563	1845	1
1	9563	1845	0
1	9572	1847	1
1	9572	1847	0
1	9604	1853	1
1	9604	1853	0
1	9635	1861	1
1	9635	1861	0
1	9640	1862	1
1	9643	1862	0
1	9663	1865	1
1	9663	1865	0
1	9695	1871	1
1	9695	1871	0
1	9725	1876	1
1	9725	1876	0
1	9740	1881	1
1	9740	1881	0
1	9771	1889	1
1	9771	1889	0
1	9779	1890	1
1	9782	1890	0
1	9838	1898	1
1	9838	1898	0
1	9855	1901	1
1	9855	1901	0
1	9889	1908	1
1	9889	1908	0
1	9919	1913	1
1	9919	1913	0
1	9939	1918	1
1	9939	1918	0
1	9966	1925	1
1	9966	1925	0
1	9981	1927	1
1	9981	1927	0
1	10017	1932	1
1	10017	1932	0
1	10041	1935	1
1	10041	1935	0
1	10065	1941	1
1	10065	1941	0
1	10074	1943	1
1	10074	1943	0
1	10083	1944	1
1	10086	1944	0
1	10120	1951	1
1	10120	1951	0
1	10131	1954	1
1	10131	1954	0
1	10161	1959	1
1	10161	1959	0
1	10169	1960	1
1	10170	1960	2
1	10173	1960	1
1	10183	1961	0
1	10193	1963	1
1	10199	1965	0
1	10208	1967	1
1	10208	1967	0
1	10213	1968	1
1	10215	1968	0
1	10220	1969	1
1	10222	1969	0
1	10249	1976	1
1	10249	1976	0
1	10264	1980	1
1	10264	1980	0
1	10281	1986	1
1	10281	1986	0
1	10302	1990	1
1	10302	1990	0
1	10331	2001	1
1	10331	2001	0
1	10398	2017	1
1	10398	2017	0
1	10432	2029	1
1	10432	2029	0
1	10450	2033	1
1	10450	2033	0
1	10473	2037	1
1	10473	2037	0
1	10481	2038	1
1	10483	2038	0
1	10523	2048	1
1	10523	2048	0
1	10557	2054	1
1	10557	2054	0
1	10573	2057	1
1	10573	2057	0
1	10574	2057	1
1	10581	2058	0
1	10594	2060	1
1	10594	2060	0
1	10626	2066	1
1	10626	2066	0
1	10647	2070	1
1	10647	2070	0
1	10667	2075	1
1	10667	2075	0
1	10678	2077	1
1	10678	2077	0
1	10711	2086	1
1	10711	2086	0
1	10764	2101	1
1	10764	2101	0
1	10784	2105	1
1	10784	2105	0
1	10796	2107	1
1	10796	2107	0
1	10828	2117	1
1	10828	2117	0
1	10829	2117	1
1	10838	2118	0
1	10859	2121	1
1	10859	2121	0
1	10896	2128	1
1	10896	2128	0
1	10916	2133	1
1	10916	2133	0
1	10917	2133	1
1	10923	2134	0
1	10942	2137	1
1	10942	2137	0
1	10952	2138	1
1	10955	2138	0
1	10964	2139	1
1	10967	2139	0
1	10990	2145	1
1	10990	2145	0
1	11003	2149	1
1	11003	2149	0
1	11004	2149	1
1	11010	2150	0
1	11019	2152	1
1	11019	2152	0
1	11038	2155	1
1	11038	2155	0
1	11074	2162	1
1	11074	2162	0
1	11092	2166	1
1	11092	2166	0
1	11198	2185	1
1	11198	2185	0
1	11249	2197	1
1	11249	2197	0
1	11275	2200	1
1	11275	2200	0
1	11299	2203	1
1	11299	2203	0
1	11324	2208	1
1	11324	2208	0
1	11357	2216	1
1	11357	2216	0
1	11390	2223	1
1	11390	2223	0
1	11423	2230	1
1	11423	2230	0
1	11424	2230	1
1	11433	2231	0
1	11448	2234	1
1	11448	2234	0
1	11459	2237	1
1	11459	2237	0
1	11486	2243	1
1	11486	2243	0
1	11517	2247	1
1	11517	2247	0
1	11528	2249	1
1	11528	2249	0
1	11533	2250	1
1	11535	2250	0
1	11548	2252	1
1	11548	2252	0
1	11581	2256	1
1	11581	2256	0
1	11590	2257	1
1	11603	2259	2
1	11607	2260	1
1	11613	2261	0
1	11662	2273	1
1	11662	2273	0
1	11718	2284	1
1	11718	2284	0
1	11749	2290	1
1	11749	2290	0
1	11819	2308	1
1	11819	2308	0
1	11866	2315	1
1	11866	2315	0
1	11867	2315	1
1	11873	2316	0
1	11878	2317	1
1	11880	2317	0
1	11915	2327	1
1	11915	2327	0
1	11920	2328	1
1	11922	2328	0
1	11927	2329	1
1	11929	2329	0
1	11943	2331	1
1	11943	2331	0
1	12003	2339	1
1	12003	2339	0
1	12127	2361	1
1	12127	2361	0
1	12256	2381	1
1	12256	2381	0
1	12287	2388	1
1	12287	2388	0
1	12288	2388	1
1	12294	2389	0
1	12306	2391	1
1	12306	2391	0
1	12354	2399	1
1	12354	2399	0
1	12355	2399	1
1	12356	2399	2
1	12362	2400	1
1	12370	2401	0
1	12411	2410	1
1	12411	2410	0
1	12437	2418	1
1	12437	2418	0
1	12438	2418	1
1	12443	2419	2
1	12444	2419	3
1	12447	2419	2
1	12457	2420	1
1	12463	2421	0
1	12468	2422	1
1	12470	2422	0
1	12484	2425	1
1	12484	2425	0
1	12521	2435	1
1	12521	2435	0
1	12539	2441	1
1	12539	2441	0
1	12564	2446	1
1	12564	2446	0
1	12606	2457	1
1	12606	2457	0
1	12619	2461	1
1	12619	2461	0
1	12620	2461	1
1	12626	2462	0
1	12641	2467	1
1	12641	2467	0
1	12642	2467	1
1	12651	2468	0
1	12666	2472	1
1	12666	2472	0
1	12674	2473	1
1	12676	2473	0
1	12729	2484	1
1	12729	2484	0
1	12730	2484	1
1	12741	2485	0
1	12917	2528	1
1	12917	2528	0
1	12945	2534	1
1	12945	2534	0
1	12956	2537	1
1	12956	2537	0
1	12964	2538	1
1	12965	2538	2
1	12967	2538	1
1	12976	2539	0
1	12999	2542	1
1	12999	2542	0
1	13021	2545	1
1	13021	2545	0
1	13075	2554	1
1	13075	2554	0
1	13080	2555	1
1	13082	2555	0
1	13093	2558	1
1	13093	2558	0
1	13110	2562	1
1	13110	2562	0
1	13135	2565	1
1	13135	2565	0
1	13225	2584	1
1	13225	2584	0
1	13234	2586	1
1	13234	2586	0
1	13252	2590	1
1	13252	2590	0
1	13268	2593	1
1	13268	2593	0
1	13308	2604	1
1	13308	2604	0
1	13315	2605	1
1	13317	2605	0
1	13340	2609	1
1	13340	2609	0
1	13359	2614	1
1	13359	2614	0
1	13409	2629	1
1	13409	2629	0
1	13561	2664	1
1	13561	2664	0
1	13602	2670	1
1	13602	2670	0
1	13639	2678	1
1	13639	2678	0
1	13655	2681	1
1	13655	2681	0
1	13656	2681	1
1	13663	2682	0
1	13685	2686	1
1	13685	2686	0
1	13745	2706	1
1	13745	2706	0
1	13756	2709	1
1	13756	2709	0
1	13774	2713	1
1	13774	2713	0
1	13797	2718	1
1	13797	2718	0
1	13798	2718	1
1	13806	2719	0
1	13832	2723	1
1	13832	2723	0
1	13852	2727	1
1	13852	2727	0
1	13873	2730	1
1	13873	2730	0
1	13904	2734	1
1	13904	2734	0
1	13905	2734	1
1	13912	2735	2
1	13914	2735	1
1	13920	2736	0
1	13942	2742	1
1	13942	2742	0
1	14001	2759	1
1	14001	2759	0
1	14021	2762	1
1	14021	2762	0
1	14073	2772	1
1	14073	2772	0
1	14220	2802	1
1	14220	2802	0
1	14244	2808	1
1	14244	2808	0
1	14260	2811	1
1	14260	2811	0
1	14261	2811	1
1	14268	2812	0
1	14286	2815	1
1	14286	2815	0
1	14299	2818	1
1	14299	2818	0
1	14352	2833	1
1	14352	2833	0
1	14362	2835	1
1	14365	2836	2
1	14369	2837	1
1	14375	2838	0
1	14387	2840	1
1	14387	2840	0
1	14397	2841	1
1	14399	2841	0
1	14421	2844	1
1	14421	2844	0
1	14509	2865	1
1	14509	2865	0
1	14537	2874	1
1	14537	2874	0
1	14542	2875	1
1	14543	2875	2
1	14545	2875	1
1	14550	2876	2
1	14552	2876	1
1	14559	2877	0
1	14566	2878	1
1	14567	2878	2
1	14571	2878	1
1	14577	2879	0
1	14610	2888	1
1	14610	2888	0
1	14625	2893	1
1	14625	2893	0
1	14673	2905	1
1	14673	2905	0
1	14714	2915	1
1	14714	2915	0
1	14789	2928	1
1	14789	2928	0
1	14818	2932	1
1	14818	2932	0
1	14832	2934	1
1	14832	2934	0
1	14837	2935	1
1	14840	2935	0
1	14856	2937	1
1	14856	2937	0
1	14876	2941	1
1	14876	2941	0
1	14901	2944	1
1	14901	2944	0
1	14921	2947	1
1	14921	2947	0
1	14922	2947	1
1	14930	2948	0
1	14939	2950	1
1	14939	2950	0
1	14948	2952	1
1	14948	2952	0
1	14965	2955	1
1	14965	2955	0
1	14996	2961	1
1	14996	2961	0
1	14997	2961	1
1	15002	2962	2
1	15005	2962	1
1	15022	2966	0
1	15043	2970	1
1	15043	2970	0
1	15073	2975	1
1	15073	2975	0
1	15084	2977	1
1	15084	2977	0
1	15115	2981	1
1	15115	2981	0
1	15122	2982	1
1	15126	2982	0
1	15133	2983	1
1	15137	2983	0
1	15150	2985	1
1	15150	2985	0
1	15198	3000	1
1	15198	3000	0
1	15205	3001	1
1	15207	3001	0
1	15286	3016	1
1	15286	3016	0
1	15328	3024	1
1	15328	3024	0
1	15361	3029	1
1	15361	3029	0
1	15372	3031	1
1	15372	3031	0
1	15394	3038	1
1	15394	3038	0
1	15437	3046	1
1	15437	3046	0
1	15464	3052	1
1	15464	3052	0
1	15486	3055	1
1	15486	3055	0
1	15545	3065	1
1	15545	3065	0
1	15577	3074	1
1	15577	3074	0
1	15628	3080	1
1	15628	3080	0
1	15693	3094	1
1	15693	3094	0
1	15710	3097	1
1	15710	3097	0
1	15827	3117	1
1	15827	3117	0
1	15870	3125	1
1	15870	3125	0
1	15875	3126	1
1	15877	3126	0
1	15890	3130	1
1	15890	3130	0
1	15891	3130	1
1	15897	3131	0
1	15909	3133	1
1	15909	3133	0
1	16086	3173	1
1	16086	3173	0
1	16099	3175	1
1	16105	3177	0
1	16129	3184	1
1	16129	3184	0
1	16146	3186	1
1	16146	3186	0