version 3
run Experimentos-721-20260514-09:21:32-7032
attr configname Experimentos
attr datetime 20260514-09:21:32
attr datetimef 20260514-092132
attr experiment Experimentos
attr inifile TwoQueues.ini
attr iterationvars "$p=0.7, $q=0.3, $Y=10, $m=2"
attr iterationvarsd p=0.7/q=0.3/Y=10/m=2
attr iterationvarsf p=0.7,q=0.3,Y=10,m=2-
attr measurement "$p=0.7, $q=0.3, $Y=10, $m=2"
attr network TwoQueues
attr processid 7032
attr repetition 1
attr replication #1
attr resultdir results
attr runnumber 721
attr seedset 721
itervar Y 10
itervar m 2
itervar p 0.7
itervar q 0.3
config description "Barrido completo de parámetros Proyecto 12"
config **.source1.p 0.7
config **.source1.q 0.2
config **.source2.p 0.6
config **.source2.q 0.3
config **.serverWithMaintenance.Y 10
config **.serverWithMaintenance.m 2
config network TwoQueues
config cpu-time-limit 5000s
config sim-time-limit 5000s
config warmup-period 400s
config repeat 20
config output-scalar-file results/Experimentos-p=0.7,q=0.3,Y=10,m=2--#1.sca
config output-vector-file results/Experimentos-p=0.7,q=0.3,Y=10,m=2--#1.vec
config **.vector-recording true

vector 0 TwoQueues.serverWithMaintenance residenceTime2:vector ETV
attr recordingmode vector
attr source delay2
attr title "Residence Time Class 2"
vector 1 TwoQueues.queue2 queueLengthStats:vector ETV
attr recordingmode vector
attr source qlen
attr title "Average Queue Length"
vector 2 TwoQueues.queue1 queueLengthStats:vector ETV
attr recordingmode vector
attr source qlen
attr title "Average Queue Length"
vector 3 TwoQueues.server residenceTime1:vector ETV
attr recordingmode vector
attr source delay1
attr title "Residence Time Class 1"
vector 4 TwoQueues.server throughputStats1:vector ETV
attr recordingmode vector
attr source throughput1
attr title "Throughput Class 1"
0	2365	400	1
0	2376	402	1
0	2388	404	1
0	2398	405	1
0	2426	408	1
0	2445	410	1
0	2502	420	1
0	2525	424	1
0	2537	426	1
0	2555	429	2
0	2564	430	2
0	2577	433	1
0	2588	435	1
0	2602	438	1
0	2614	441	1
0	2620	442	2
0	2659	449	1
0	2686	455	1
0	2705	459	1
0	2724	462	4
0	2730	463	4
0	2736	464	3
0	2742	465	4
0	2749	466	1
0	2756	467	1
0	2793	476	1
0	2804	477	2
0	2813	478	2
0	2822	480	1
0	2839	483	1
0	2848	485	1
0	2867	487	1
0	2904	491	1
0	2915	492	1
0	2932	494	1
0	2944	495	1
0	2963	497	1
0	2988	500	1
0	3000	501	1
0	3041	506	1
0	3052	507	1
0	3092	513	1
0	3106	515	1
0	3116	516	1
0	3125	518	1
0	3155	528	1
0	3165	529	1
0	3179	530	1
0	3214	535	1
0	3227	538	3
0	3239	539	2
0	3250	540	1
0	3266	542	1
0	3277	543	1
0	3283	544	2
0	3306	549	1
0	3342	555	1
0	3356	558	1
0	3366	560	1
0	3389	563	4
0	3401	564	3
0	3426	567	1
0	3466	572	1
0	3479	573	1
0	3544	585	1
0	3560	587	1
0	3609	598	1
0	3650	606	1
0	3692	614	1
0	3711	617	2
0	3732	620	1
0	3754	626	1
0	3779	631	1
0	3826	641	1
0	3840	643	1
0	3893	652	1
0	3907	655	1
0	3932	662	1
0	3938	663	2
0	3951	666	2
0	3958	667	2
0	3964	668	2
0	3978	670	1
0	4037	681	1
0	4049	683	1
0	4069	687	1
0	4081	688	1
0	4094	689	1
0	4124	693	1
0	4149	702	1
0	4155	703	2
0	4196	711	1
0	4219	717	1
0	4225	718	2
0	4237	719	1
0	4249	720	2
0	4259	721	3
0	4273	723	1
0	4290	725	1
0	4311	728	4
0	4327	731	1
0	4337	733	1
0	4343	734	2
0	4361	738	1
0	4378	740	1
0	4403	743	1
0	4457	756	1
0	4469	758	1
0	4520	766	1
0	4563	776	1
0	4572	778	1
0	4581	780	1
0	4600	784	1
0	4607	785	2
0	4613	786	2
0	4640	793	1
0	4649	794	2
0	4656	795	1
0	4665	797	1
0	4688	802	1
0	4715	806	1
0	4721	807	2
0	4736	811	1
0	4779	820	1
0	4791	821	1
0	4798	822	2
0	4807	823	3
0	4815	824	3
0	4838	829	1
0	4861	832	3
0	4871	833	2
0	4894	838	1
0	4913	842	1
0	4919	843	2
0	4930	846	1
0	4937	847	1
0	4976	853	1
0	4988	855	1
0	4995	856	1
0	5012	859	2
0	5023	860	1
0	5034	861	2
0	5050	862	1
0	5061	863	2
0	5100	869	1
0	5109	870	2
0	5123	872	1
0	5139	874	1
0	5170	880	1
0	5181	883	4
0	5188	884	1
0	5198	885	1
0	5212	888	1
0	5218	889	2
0	5228	891	1
0	5234	892	2
0	5246	894	1
0	5265	896	1
0	5276	897	1
0	5333	907	1
0	5398	919	1
0	5427	923	1
0	5443	925	1
0	5455	927	1
0	5464	929	1
0	5526	940	1
0	5537	942	1
0	5555	947	1
0	5565	948	1
0	5579	951	3
0	5592	955	1
0	5601	957	1
0	5611	958	1
0	5628	962	1
0	5644	966	1
0	5667	969	1
0	5683	973	1
0	5703	978	1
0	5726	982	1
0	5739	985	1
0	5746	986	2
0	5752	987	2
0	5771	990	1
0	5780	991	2
0	5787	992	1
0	5842	1002	1
0	5849	1003	1
0	5860	1005	1
0	5870	1006	1
0	5896	1010	1
0	5908	1012	1
0	5922	1014	1
0	5952	1018	1
0	5962	1019	1
0	5998	1027	1
0	6037	1035	1
0	6050	1036	1
0	6061	1037	2
0	6080	1039	1
0	6098	1042	4
0	6109	1043	4
0	6121	1044	2
0	6146	1047	1
0	6156	1048	1
0	6174	1051	1
0	6186	1053	1
0	6210	1056	1
0	6237	1059	1
0	6284	1065	1
0	6303	1068	4
0	6309	1069	3
0	6320	1070	1
0	6367	1078	1
0	6390	1081	1
0	6400	1082	1
0	6411	1085	1
0	6420	1087	1
0	6440	1092	1
0	6451	1093	1
0	6469	1096	2
0	6476	1097	1
0	6498	1103	1
0	6507	1105	1
0	6531	1108	1
0	6542	1109	1
0	6578	1118	1
0	6604	1123	1
0	6610	1124	2
0	6628	1128	1
0	6641	1131	3
0	6648	1132	3
0	6654	1133	2
0	6677	1136	1
0	6691	1138	1
0	6720	1142	1
0	6731	1143	1
0	6748	1147	1
0	6754	1148	2
0	6761	1149	1
0	6782	1152	3
0	6793	1153	4
0	6813	1157	1
0	6820	1158	1
0	6836	1161	1
0	6845	1163	1
0	6853	1164	1
0	6860	1165	2
0	6866	1166	2
0	6880	1168	1
0	6897	1171	1
0	6932	1177	1
0	6959	1182	1
0	6995	1190	1
0	7002	1191	1
0	7010	1192	1
0	7016	1193	2
0	7032	1197	1
0	7043	1198	1
0	7055	1199	1
0	7076	1202	3
0	7082	1203	4
0	7093	1204	1
0	7114	1209	1
0	7145	1216	1
0	7182	1223	1
0	7190	1224	1
0	7197	1225	2
0	7204	1226	2
0	7210	1227	2
0	7222	1230	1
0	7231	1232	1
0	7240	1234	1
0	7259	1237	1
0	7272	1238	1
0	7284	1239	1
0	7326	1247	1
0	7335	1249	1
0	7354	1253	1
0	7360	1254	2
0	7372	1257	2
0	7379	1258	1
0	7401	1263	1
0	7456	1279	1
0	7467	1281	1
0	7508	1286	1
0	7519	1287	1
0	7536	1289	1
0	7560	1292	1
0	7583	1295	1
0	7604	1300	1
0	7642	1306	1
0	7654	1307	2
0	7665	1308	2
0	7697	1314	1
0	7711	1316	1
0	7726	1320	1
0	7757	1324	1
0	7764	1325	1
0	7782	1329	1
0	7807	1332	2
0	7834	1337	1
0	7862	1342	1
0	7898	1348	1
0	7937	1360	1
0	7956	1363	1
0	7964	1364	1
0	7970	1365	2
0	7988	1369	1
0	7999	1371	1
0	8015	1374	3
0	8021	1375	4
0	8051	1385	1
0	8061	1386	1
0	8083	1391	1
0	8092	1393	1
0	8099	1394	1
0	8110	1397	1
0	8125	1402	1
0	8142	1405	1
0	8158	1408	4
0	8165	1409	1
0	8187	1414	1
0	8199	1415	1
0	8212	1416	1
0	8246	1421	1
0	8256	1422	1
0	8273	1428	1
0	8293	1432	1
0	8323	1439	1
0	8358	1445	1
0	8365	1446	1
0	8383	1448	1
0	8415	1453	1
0	8424	1454	2
0	8436	1455	1
0	8457	1458	1
0	8478	1461	1
0	8487	1462	2
0	8500	1465	1
0	8516	1468	4
0	8522	1469	5
0	8529	1470	1
0	8553	1473	1
0	8582	1478	1
0	8596	1480	1
0	8619	1484	1
0	8656	1491	1
0	8666	1492	1
0	8691	1497	1
0	8736	1504	1
0	8747	1505	2
0	8773	1509	1
0	8786	1513	1
0	8796	1514	1
0	8808	1515	1
0	8844	1527	1
0	8876	1531	1
0	8888	1532	1
0	8919	1536	1
0	8945	1542	1
0	8960	1547	1
0	8987	1557	1
0	9008	1561	1
0	9047	1572	1
0	9057	1573	1
0	9067	1574	1
0	9079	1575	1
0	9109	1580	1
0	9127	1583	1
0	9150	1586	3
0	9156	1587	3
0	9204	1597	1
0	9241	1603	1
0	9252	1604	1
0	9262	1605	1
0	9283	1608	1
0	9290	1609	1
0	9301	1612	1
0	9308	1613	1
0	9321	1616	3
0	9327	1617	2
0	9339	1620	1
0	9345	1621	2
0	9360	1623	1
0	9366	1624	2
0	9381	1626	1
0	9391	1627	2
0	9410	1631	1
0	9417	1632	1
0	9435	1635	2
0	9441	1636	2
0	9448	1637	1
0	9455	1638	1
0	9473	1641	1
0	9509	1650	1
0	9548	1658	1
0	9572	1661	1
0	9590	1663	1
0	9618	1667	1
0	9644	1673	1
0	9675	1679	1
0	9691	1683	1
0	9733	1694	1
0	9742	1696	1
0	9761	1703	1
0	9776	1706	1
0	9789	1707	2
0	9813	1710	1
0	9839	1713	1
0	9864	1718	1
0	9926	1729	1
0	9962	1734	1
0	9982	1736	1
0	9996	1737	1
0	10034	1742	1
0	10069	1748	1
0	10089	1754	1
0	10100	1757	1
0	10119	1759	1
0	10144	1762	4
0	10153	1763	4
0	10162	1765	1
0	10187	1770	1
0	10196	1772	1
0	10210	1774	1
0	10217	1775	1
0	10226	1777	1
0	10233	1778	1
0	10242	1780	1
0	10261	1783	3
0	10267	1784	4
0	10276	1785	5
0	10285	1786	1
0	10292	1787	1
0	10338	1794	1
0	10358	1798	1
0	10383	1801	1
0	10408	1804	1
0	10427	1807	1
0	10467	1813	1
0	10488	1817	1
0	10505	1823	1
0	10521	1827	1
0	10538	1829	1
0	10544	1830	2
0	10551	1831	1
0	10591	1838	1
0	10653	1846	1
0	10665	1847	2
0	10688	1850	4
0	10708	1854	1
0	10715	1855	1
0	10737	1861	1
0	10762	1865	1
0	10772	1866	1
0	10790	1870	1
0	10806	1873	1
0	10822	1876	1
0	10842	1881	1
0	10870	1887	1
0	10891	1890	1
0	10927	1898	1
0	10982	1908	1
0	10990	1909	1
0	11000	1910	2
0	11008	1911	2
0	11034	1915	1
0	11052	1917	1
0	11073	1920	1
0	11101	1923	1
0	11112	1924	1
0	11122	1925	1
0	11129	1926	1
0	11146	1928	1
0	11172	1931	1
0	11201	1937	1
0	11208	1938	1
0	11233	1942	1
0	11252	1946	1
0	11267	1949	4
0	11274	1950	2
0	11280	1951	2
0	11297	1957	1
0	11315	1961	1
0	11358	1969	1
0	11383	1975	1
0	11406	1978	1
0	11422	1982	1
0	11436	1985	1
0	11458	1988	4
0	11478	1992	1
0	11502	1995	1
0	11511	1996	2
0	11534	2000	1
0	11575	2008	1
0	11582	2009	1
0	11595	2013	1
0	11602	2014	1
0	11609	2015	1
0	11630	2018	2
0	11640	2019	2
0	11652	2021	1
0	11659	2022	1
0	11668	2024	1
0	11688	2027	1
0	11698	2028	2
0	11725	2034	1
0	11735	2035	1
0	11742	2036	1
0	11765	2039	3
0	11774	2040	3
0	11790	2042	1
0	11799	2044	1
0	11814	2046	1
0	11820	2047	2
0	11832	2049	1
0	11852	2053	1
0	11859	2054	1
0	11866	2055	1
0	11883	2058	2
0	11890	2059	1
0	11897	2060	1
0	11913	2062	1
0	11930	2064	1
0	11940	2065	1
0	11993	2076	1
0	12004	2077	1
0	12024	2080	1
0	12050	2083	1
0	12068	2087	1
0	12074	2088	2
0	12087	2092	1
0	12105	2096	1
0	12125	2101	1
0	12134	2103	1
0	12141	2104	1
0	12154	2107	1
0	12168	2110	1
0	12189	2114	1
0	12210	2118	1
0	12224	2120	1
0	12268	2127	1
0	12291	2130	1
0	12308	2132	1
0	12322	2134	1
0	12349	2139	1
0	12359	2140	1
0	12370	2142	1
0	12398	2146	1
0	12415	2150	1
0	12436	2153	1
0	12447	2154	1
0	12469	2157	1
0	12493	2160	1
0	12538	2168	1
0	12550	2169	1
0	12582	2176	1
0	12589	2177	1
0	12605	2180	1
0	12629	2183	1
0	12653	2187	1
0	12683	2191	1
0	12710	2196	1
0	12739	2201	1
0	12745	2202	2
0	12752	2203	1
0	12759	2204	1
0	12784	2207	1
0	12810	2210	1
0	12851	2217	1
0	12865	2219	1
0	12904	2225	1
0	12939	2231	1
0	12953	2233	1
0	12990	2246	1
0	12996	2247	2
0	13008	2250	1
0	13017	2251	2
0	13046	2256	1
0	13070	2259	3
0	13079	2260	3
0	13088	2261	4
0	13097	2262	1
0	13106	2264	1
0	13148	2274	1
0	13169	2278	1
0	13176	2279	1
0	13202	2285	1
0	13211	2286	2
0	13229	2289	5
0	13241	2291	1
0	13277	2298	1
0	13287	2299	1
0	13296	2301	1
0	13303	2302	1
0	13310	2303	1
0	13338	2308	1
0	13367	2313	1
0	13401	2321	1
0	13421	2325	1
0	13430	2326	2
0	13442	2328	1
0	13448	2329	2
0	13457	2331	1
0	13482	2336	1
0	13493	2339	1
0	13500	2340	1
0	13507	2341	1
0	13532	2345	1
0	13619	2364	1
0	13630	2366	1
0	13679	2378	1
0	13697	2380	1
0	13704	2381	2
0	13710	2382	2
0	13728	2385	1
0	13740	2387	1
0	13747	2388	1
0	13777	2392	1
0	13792	2395	3
0	13803	2396	1
0	13811	2397	2
0	13818	2398	1
0	13832	2400	1
0	13843	2403	1
0	13869	2410	1
0	13897	2415	1
0	13928	2422	1
0	13953	2426	1
0	13972	2429	4
0	13981	2430	5
0	13993	2432	1
0	13999	2433	2
0	14006	2434	1
0	14015	2436	1
0	14029	2438	1
0	14050	2441	1
0	14074	2448	1
0	14082	2449	1
0	14103	2452	4
0	14114	2453	4
0	14124	2454	4
0	14131	2455	4
0	14138	2456	3
0	14144	2457	3
0	14150	2458	3
0	14161	2461	1
0	14212	2473	1
0	14240	2477	1
0	14333	2492	1
0	14399	2501	1
0	14425	2504	1
0	14435	2505	1
0	14447	2507	1
0	14456	2508	2
0	14473	2513	1
0	14516	2523	1
0	14529	2526	1
0	14539	2527	1
0	14572	2531	1
0	14605	2535	1
0	14617	2536	1
0	14643	2539	1
0	14653	2540	2
0	14666	2541	1
0	14679	2542	1
0	14691	2543	1
0	14709	2545	1
0	14735	2549	1
0	14753	2552	4
0	14760	2553	2
0	14767	2554	3
0	14778	2555	3
0	14789	2556	3
0	14800	2557	2
0	14808	2558	2
0	14815	2559	1
0	14824	2561	1
0	14834	2562	1
0	14854	2565	3
0	14865	2566	3
0	14893	2569	1
0	14904	2570	1
0	14922	2572	1
0	14933	2573	1
0	14944	2574	1
0	14956	2575	1
0	14988	2580	1
0	15013	2583	1
0	15045	2588	1
0	15052	2589	1
0	15063	2590	1
0	15075	2591	1
0	15086	2592	1
0	15095	2593	1
0	15112	2599	1
0	15119	2600	1
0	15142	2604	1
0	15155	2607	1
0	15173	2610	2
0	15242	2625	1
0	15259	2627	1
0	15287	2632	1
0	15296	2633	2
0	15307	2636	1
0	15316	2638	1
0	15337	2641	1
0	15347	2643	1
0	15356	2644	2
0	15375	2647	1
0	15399	2652	1
0	15410	2653	2
0	15419	2654	3
0	15429	2655	1
0	15442	2658	1
0	15458	2661	1
0	15488	2666	1
0	15499	2668	1
0	15509	2669	1
0	15553	2678	1
0	15564	2681	1
0	15571	2682	1
0	15585	2684	1
0	15592	2685	1
0	15623	2694	1
0	15632	2695	2
0	15640	2696	1
0	15649	2697	2
0	15678	2703	1
0	15691	2706	3
0	15702	2707	2
0	15727	2712	1
0	15758	2716	1
0	15771	2717	2
0	15781	2718	2
0	15791	2719	1
0	15799	2720	1
0	15805	2721	2
0	15812	2722	1
0	15863	2730	1
0	15880	2732	1
0	15903	2736	1
0	15933	2741	1
0	15943	2742	1
0	15966	2748	1
0	15975	2749	2
0	15999	2755	1
0	16008	2757	1
0	16019	2759	1
0	16041	2762	1
0	16053	2763	1
0	16077	2768	1
0	16083	2769	2
0	16107	2773	1
0	16113	2774	2
0	16132	2777	1
0	16196	2788	1
0	16207	2791	1
0	16216	2793	1
0	16235	2796	3
0	16241	2797	3
0	16247	2798	3
0	16258	2800	1
0	16268	2801	1
0	16277	2803	1
0	16293	2806	1
0	16309	2809	1
0	16350	2817	1
0	16365	2822	1
0	16390	2831	1
0	16399	2832	2
0	16418	2836	1
0	16458	2841	1
0	16494	2851	1
0	16516	2857	1
0	16527	2859	1
0	16537	2860	1
0	16547	2861	1
0	16590	2874	1
0	16618	2877	1
0	16628	2878	2
0	16647	2880	1
0	16672	2883	1
0	16704	2888	1
0	16718	2890	1
0	16743	2895	1
0	16756	2898	1
0	16766	2899	1
0	16777	2901	1
0	16792	2904	2
0	16813	2911	1
0	16825	2913	1
0	16834	2915	1
0	16841	2916	1
0	16852	2918	1
0	16864	2920	1
0	16903	2932	1
0	16910	2933	1
0	16917	2934	1
0	16935	2937	3
0	16941	2938	2
0	17008	2957	1
0	17018	2958	2
0	17028	2959	1
0	17042	2961	1
0	17060	2965	1
0	17102	2971	1
0	17126	2978	1
0	17168	2992	1
0	17195	2995	3
0	17205	2996	4
0	17211	2997	4
0	17218	2998	3
0	17229	2999	2
0	17241	3000	2
0	17251	3001	3
0	17260	3002	1
0	17361	3025	1
0	17388	3031	1
0	17404	3035	1
0	17413	3036	2
0	17422	3037	3
0	17428	3038	2
0	17439	3039	1
0	17479	3048	1
0	17485	3049	2
0	17521	3056	1
0	17540	3059	1
0	17549	3061	1
0	17568	3064	1
0	17589	3066	1
0	17598	3067	2
0	17604	3068	3
0	17626	3074	1
0	17642	3077	1
0	17659	3079	1
0	17670	3080	2
0	17692	3084	1
0	17698	3085	2
0	17732	3091	1
0	17741	3092	2
0	17783	3098	1
0	17795	3099	2
0	17808	3100	2
0	17819	3101	2
0	17828	3102	3
0	17843	3104	1
0	17850	3105	2
0	17859	3106	2
0	17882	3109	3
0	17891	3110	3
0	17898	3111	4
0	17907	3112	2
0	17919	3114	1
0	17925	3115	2
0	17936	3118	1
0	17946	3120	1
0	17955	3121	2
0	17975	3125	1
0	17990	3128	1
0	17999	3129	2
0	18042	3139	1
0	18051	3140	2
0	18058	3141	1
0	18073	3146	1
0	18091	3150	1
0	18106	3155	1
0	18120	3157	1
0	18133	3161	1
0	18145	3164	1
0	18154	3166	1
0	18173	3172	1
0	18183	3173	1
0	18205	3178	1
0	18234	3185	1
0	18254	3187	1
0	18307	3195	1
0	18323	3198	1
0	18337	3200	1
0	18376	3208	1
0	18382	3209	2
0	18389	3210	3
0	18395	3211	2
0	18406	3212	1
0	18428	3215	1
0	18438	3216	1
0	18467	3222	1
0	18480	3223	1
0	18496	3225	1
0	18520	3228	3
0	18552	3235	1
0	18581	3240	1
0	18604	3244	1
0	18616	3245	1
0	18630	3248	1
0	18641	3250	1
0	18653	3251	1
0	18671	3253	1
0	18681	3254	2
0	18704	3257	2
0	18716	3258	1
0	18727	3259	1
0	18745	3261	1
0	18754	3262	2
0	18792	3271	1
0	18801	3273	1
0	18815	3275	1
0	18832	3281	1
0	18849	3283	1
0	18871	3287	1
0	18880	3288	2
0	18914	3299	1
0	18941	3304	1
0	18952	3305	1
0	18958	3306	2
0	18968	3307	1
0	18977	3308	1
0	19002	3313	1
0	19011	3315	1
0	19026	3318	3
0	19037	3319	4
0	19058	3323	1
0	19074	3326	1
0	19096	3331	1
0	19106	3332	1
0	19126	3337	1
0	19139	3340	1
0	19164	3345	1
0	19174	3346	1
0	19232	3357	1
0	19285	3371	1
0	19319	3376	1
0	19355	3382	1
0	19463	3403	1
0	19475	3404	1
0	19485	3405	2
0	19502	3407	1
0	19515	3411	1
0	19547	3422	1
0	19581	3432	1
0	19590	3433	2
0	19598	3434	1
0	19604	3435	2
0	19617	3439	1
0	19626	3441	1
0	19651	3445	1
0	19674	3452	1
0	19680	3453	2
0	19696	3455	1
0	19713	3458	3
0	19749	3463	1
0	19775	3466	1
0	19787	3467	1
0	19796	3468	2
0	19814	3472	1
0	19823	3474	1
0	19830	3475	1
0	19848	3478	1
0	19869	3482	1
0	19886	3485	1
0	19896	3486	2
0	19916	3490	1
0	19923	3491	1
0	20006	3509	1
0	20018	3510	1
0	20037	3513	1
0	20125	3527	1
0	20136	3528	1
0	20147	3529	1
0	20188	3534	1
0	20213	3538	1
0	20224	3539	1
0	20235	3540	1
0	20255	3544	1
0	20272	3550	1
0	20286	3554	1
0	20292	3555	2
0	20313	3562	1
0	20343	3567	1
0	20367	3572	1
0	20417	3579	1
0	20435	3581	1
0	20446	3582	1
0	20457	3583	1
0	20487	3587	1
0	20494	3588	1
0	20503	3590	1
0	20515	3591	1
0	20543	3595	1
0	20555	3598	2
0	20565	3599	1
0	20578	3602	1
0	20587	3604	1
0	20619	3609	1
0	20631	3611	1
0	20638	3612	1
0	20662	3617	1
0	20679	3619	1
0	20696	3623	1
0	20720	3626	4
0	20729	3627	2
0	20741	3628	1
0	20751	3629	2
0	20782	3635	1
0	20805	3639	1
0	20817	3641	1
0	20860	3650	1
0	20878	3654	1
0	20885	3655	1
0	20899	3659	1
0	20908	3661	1
0	20934	3664	1
0	20945	3665	1
0	20967	3668	1
0	20982	3673	1
0	20989	3674	1
0	21020	3680	1
0	21044	3684	1
0	21059	3688	1
0	21074	3691	2
0	21081	3692	1
0	21092	3693	1
0	21103	3694	2
0	21129	3701	1
0	21139	3702	1
0	21154	3706	1
0	21177	3714	1
0	21189	3715	1
0	21249	3728	1
0	21268	3731	4
0	21279	3732	4
0	21310	3736	1
0	21317	3737	1
0	21333	3739	1
0	21365	3744	1
0	21377	3745	1
0	21428	3755	1
0	21454	3763	1
0	21487	3772	1
0	21513	3775	3
0	21523	3776	4
0	21534	3777	5
0	21552	3779	1
0	21577	3782	1
0	21596	3784	1
0	21606	3785	2
0	21653	3796	1
0	21697	3806	1
0	21706	3807	2
0	21734	3812	1
0	21743	3814	1
0	21752	3816	1
0	21760	3817	1
0	21766	3818	2
0	21773	3819	1
0	21791	3821	1
0	21802	3822	2
0	21813	3823	1
0	21846	3828	1
0	21886	3835	1
0	21895	3837	1
0	21926	3845	1
0	21980	3857	1
0	21989	3859	1
0	21996	3860	1
0	22014	3864	1
0	22041	3868	1
0	22058	3870	1
0	22091	3875	1
0	22113	3878	2
0	22122	3880	1
0	22135	3884	1
0	22150	3889	1
0	22164	3893	1
0	22172	3894	2
0	22181	3895	2
0	22190	3896	3
0	22199	3897	2
0	22217	3900	1
0	22230	3903	3
0	22236	3904	4
0	22260	3909	1
0	22295	3915	1
0	22329	3922	1
0	22355	3926	1
0	22387	3930	1
0	22401	3931	1
0	22453	3939	1
0	22478	3944	1
0	22498	3947	3
0	22508	3948	3
0	22519	3949	3
0	22533	3952	1
0	22544	3953	1
0	22552	3954	2
0	22562	3956	1
0	22569	3957	2
0	22575	3958	2
0	22585	3960	1
0	22606	3963	4
0	22619	3964	3
0	22632	3965	3
0	22642	3966	4
0	22655	3967	4
0	22666	3968	4
0	22677	3969	5
0	22687	3970	4
0	22701	3973	1
0	22719	3976	1
0	22752	3982	1
0	22766	3985	1
0	22784	3988	1
0	22794	3989	1
0	22820	3993	1
0	22841	3995	1
0	22852	3996	1
0	22864	3997	1
0	22876	3998	1
0	22893	4000	1
0	22909	4003	2
0	22915	4004	2
0	22926	4007	1
0	22941	4009	1
0	22947	4010	2
0	22954	4011	1
0	22977	4015	1
0	23034	4025	1
0	23080	4034	1
0	23090	4035	1
0	23115	4041	1
0	23122	4042	1
0	23136	4044	1
0	23152	4047	1
0	23164	4048	1
0	23175	4049	2
0	23183	4050	2
0	23194	4053	1
0	23206	4055	1
0	23217	4056	1
0	23242	4064	1
0	23258	4066	1
0	23310	4077	1
0	23339	4084	1
0	23353	4085	1
0	23363	4086	2
0	23375	4088	1
0	23385	4089	1
0	23401	4093	1
0	23408	4094	2
0	23432	4097	4
0	23441	4098	2
0	23459	4101	1
0	23473	4104	1
0	23491	4107	1
0	23510	4109	1
0	23548	4119	1
0	23558	4120	1
0	23583	4126	1
0	23592	4127	2
0	23611	4130	2
0	23620	4132	1
0	23632	4134	1
0	23644	4135	2
0	23653	4136	2
0	23666	4140	1
0	23689	4143	1
0	23702	4144	1
0	23720	4146	1
0	23741	4148	1
0	23757	4151	4
0	23766	4152	5
0	23775	4154	1
0	23786	4157	1
0	23793	4158	1
0	23818	4161	1
0	23840	4164	1
0	23848	4165	1
0	23854	4166	2
0	23890	4174	1
0	23904	4177	1
0	23920	4179	1
0	23937	4181	1
0	23947	4182	1
0	23968	4189	1
0	24001	4194	1
0	24027	4202	1
0	24063	4210	1
0	24070	4211	1
0	24077	4212	1
0	24121	4221	1
0	24130	4223	1
0	24155	4228	1
0	24166	4231	1
0	24173	4232	1
0	24187	4234	1
0	24194	4235	1
0	24205	4238	1
0	24235	4242	1
0	24252	4245	1
0	24273	4248	4
0	24279	4249	4
0	24285	4250	4
0	24337	4261	1
0	24352	4263	1
0	24363	4264	2
0	24373	4265	2
0	24403	4274	1
0	24421	4278	1
0	24452	4282	1
0	24486	4286	1
0	24504	4288	1
0	24531	4294	1
0	24545	4297	1
0	24582	4303	1
0	24598	4306	1
0	24609	4309	1
0	24616	4310	1
0	24638	4316	1
0	24696	4330	1
0	24754	4341	1
0	24765	4342	2
0	24796	4347	1
0	24803	4348	1
0	24810	4349	1
0	24826	4354	1
0	24832	4355	2
0	24839	4356	1
0	24853	4358	1
0	24890	4363	1
0	24921	4368	1
0	24931	4369	1
0	24942	4370	1
0	24951	4371	2
0	24958	4372	2
0	24967	4373	2
0	24978	4375	1
0	24987	4377	1
0	24994	4378	1
0	25025	4385	1
0	25050	4393	1
0	25060	4394	1
0	25083	4397	1
0	25096	4399	1
0	25114	4401	1
0	25144	4410	1
0	25161	4413	1
0	25167	4414	2
0	25200	4422	1
0	25228	4427	1
0	25240	4430	1
0	25253	4434	1
0	25275	4438	1
0	25304	4442	1
0	25345	4455	1
0	25389	4467	1
0	25420	4475	1
0	25431	4478	1
0	25440	4480	1
0	25472	4486	1
0	25493	4489	3
0	25519	4494	1
0	25530	4495	1
0	25539	4496	2
0	25547	4497	2
0	25553	4498	2
0	25559	4499	3
0	25576	4504	1
0	25618	4511	1
0	25636	4513	1
0	25661	4516	2
0	25681	4518	1
0	25692	4519	1
0	25719	4526	1
0	25748	4533	1
0	25755	4534	1
0	25775	4539	1
0	25785	4540	1
0	25796	4542	1
0	25805	4544	1
0	25818	4547	3
0	25829	4548	3
0	25840	4549	2
0	25852	4550	2
0	25861	4551	2
0	25868	4552	2
0	25875	4553	2
0	25881	4554	2
0	25963	4567	1
0	25974	4568	1
0	25998	4571	3
0	26037	4578	1
0	26051	4581	1
0	26067	4584	1
0	26081	4586	1
0	26145	4598	1
0	26156	4601	1
0	26180	4608	1
0	26187	4609	1
0	26218	4617	1
0	26231	4620	2
0	26237	4621	3
0	26244	4622	1
0	26253	4624	1
0	26357	4641	1
0	26378	4645	1
0	26390	4646	1
0	26402	4647	1
0	26418	4649	1
0	26440	4655	1
0	26467	4663	1
0	26480	4666	1
0	26493	4667	1
0	26503	4668	2
0	26515	4669	2
0	26534	4671	1
0	26564	4675	1
0	26573	4676	2
0	26581	4677	1
0	26587	4678	2
0	26610	4681	1
0	26628	4683	1
0	26639	4684	1
0	26681	4692	1
0	26693	4693	1
0	26704	4694	1
0	26732	4700	1
0	26751	4707	1
0	26758	4708	1
0	26791	4717	1
0	26810	4720	3
0	26820	4721	1
0	26833	4722	1
0	26845	4723	2
0	26855	4724	2
0	26867	4725	1
0	26878	4726	2
0	26899	4729	1
0	26919	4732	1
0	26948	4737	1
0	26960	4740	4
0	26967	4741	3
0	26973	4742	2
0	26986	4746	1
0	26993	4747	1
0	27004	4750	1
0	27032	4758	1
0	27043	4759	1
0	27052	4760	2
0	27070	4762	1
0	27087	4765	2
0	27095	4766	2
0	27101	4767	3
0	27107	4768	3
0	27114	4769	4
0	27123	4770	2
0	27139	4772	1
0	27146	4773	1
0	27155	4775	1
0	27164	4777	1
0	27190	4782	1
0	27201	4784	1
0	27212	4785	1
0	27218	4786	2
0	27227	4788	1
0	27273	4795	1
0	27298	4801	1
0	27360	4812	1
0	27372	4813	1
0	27388	4815	1
0	27403	4818	2
0	27410	4819	1
0	27428	4823	1
0	27442	4826	1
0	27472	4830	1
0	27481	4832	1
0	27490	4834	1
0	27504	4836	1
0	27511	4837	1
0	27529	4840	1
0	27555	4846	1
0	27571	4849	1
0	27589	4853	1
0	27602	4854	1
0	27642	4861	1
0	27660	4866	1
0	27685	4871	1
0	27707	4876	1
0	27760	4886	1
0	27781	4889	1
0	27831	4896	1
0	27847	4899	1
0	27865	4903	1
0	27874	4905	1
0	27892	4909	1
0	27944	4919	1
0	27955	4920	1
0	27962	4921	2
0	27969	4922	2
0	27980	4923	2
0	28001	4926	4
0	28010	4927	5
0	28020	4928	3
0	28028	4929	2
0	28047	4932	1
0	28059	4933	2
0	28075	4935	1
0	28099	4938	1
0	28112	4939	1
0	28131	4941	1
0	28156	4944	1
0	28167	4945	1
0	28177	4946	2
0	28188	4947	2
0	28201	4949	1
0	28213	4951	1
0	28259	4964	1
0	28268	4966	1
0	28293	4969	1
0	28304	4970	1
0	28329	4973	2
0	28335	4974	2
0	28404	4987	1
0	28415	4988	2
0	28448	4992	1
0	28467	4995	1
0	28476	4997	1
0	28486	4998	1
0	28495	4999	1
1	2370	401	1
1	2370	401	0
1	2384	403	1
1	2384	403	0
1	2389	404	1
1	2392	404	0
1	2416	407	1
1	2416	407	0
1	2438	409	1
1	2438	409	0
1	2494	419	1
1	2494	419	0
1	2518	423	1
1	2518	423	0
1	2533	425	1
1	2533	425	0
1	2544	427	1
1	2550	428	0
1	2551	428	1
1	2558	429	0
1	2573	432	1
1	2573	432	0
1	2582	434	1
1	2582	434	0
1	2598	437	1
1	2598	437	0
1	2609	440	1
1	2609	440	0
1	2610	440	1
1	2616	441	0
1	2655	448	1
1	2655	448	0
1	2682	454	1
1	2682	454	0
1	2698	458	1
1	2698	458	0
1	2699	458	1
1	2706	459	2
1	2716	461	1
1	2717	461	2
1	2718	461	3
1	2726	462	2
1	2732	463	1
1	2738	464	0
1	2743	465	1
1	2745	465	0
1	2750	466	1
1	2752	466	0
1	2784	475	1
1	2784	475	0
1	2785	475	1
1	2795	476	2
1	2797	476	1
1	2807	477	0
1	2818	479	1
1	2818	479	0
1	2833	482	1
1	2833	482	0
1	2844	484	1
1	2844	484	0
1	2860	486	1
1	2860	486	0
1	2897	490	1
1	2897	490	0
1	2906	491	1
1	2908	491	0
1	2925	493	1
1	2925	493	0
1	2934	494	1
1	2937	494	0
1	2955	496	1
1	2955	496	0
1	2981	499	1
1	2981	499	0
1	2990	500	1
1	2993	500	0
1	3034	505	1
1	3034	505	0
1	3043	506	1
1	3045	506	0
1	3085	512	1
1	3085	512	0
1	3100	514	1
1	3100	514	0
1	3108	515	1
1	3110	515	0
1	3121	517	1
1	3121	517	0
1	3151	527	1
1	3151	527	0
1	3156	528	1
1	3159	528	0
1	3166	529	1
1	3173	529	0
1	3208	534	1
1	3208	534	0
1	3215	535	1
1	3222	537	0
1	3223	537	1
1	3233	538	0
1	3240	539	1
1	3244	539	0
1	3259	541	1
1	3259	541	0
1	3268	542	1
1	3269	542	2
1	3271	542	1
1	3279	543	0
1	3298	548	1
1	3298	548	0
1	3336	554	1
1	3336	554	0
1	3352	557	1
1	3352	557	0
1	3361	559	1
1	3361	559	0
1	3362	559	1
1	3370	561	2
1	3379	562	1
1	3394	563	0
1	3417	566	1
1	3417	566	0
1	3458	571	1
1	3458	571	0
1	3468	572	1
1	3472	572	0
1	3537	584	1
1	3537	584	0
1	3554	586	1
1	3554	586	0
1	3603	597	1
1	3603	597	0
1	3643	605	1
1	3643	605	0
1	3684	613	1
1	3684	613	0
1	3701	615	1
1	3707	616	0
1	3726	619	1
1	3726	619	0
1	3750	625	1
1	3750	625	0
1	3773	630	1
1	3773	630	0
1	3820	640	1
1	3820	640	0
1	3834	642	1
1	3834	642	0
1	3886	651	1
1	3886	651	0
1	3903	654	1
1	3903	654	0
1	3927	661	1
1	3927	661	0
1	3928	661	1
1	3934	662	0
1	3942	664	1
1	3946	665	0
1	3947	665	1
1	3952	666	2
1	3954	666	1
1	3960	667	0
1	3972	669	1
1	3972	669	0
1	4029	680	1
1	4029	680	0
1	4045	682	1
1	4045	682	0
1	4063	686	1
1	4063	686	0
1	4071	687	1
1	4074	687	0
1	4083	688	1
1	4087	688	0
1	4118	692	1
1	4118	692	0
1	4144	701	1
1	4144	701	0
1	4145	701	1
1	4151	702	0
1	4190	710	1
1	4190	710	0
1	4214	716	1
1	4214	716	0
1	4215	716	1
1	4221	717	0
1	4226	718	1
1	4227	718	2
1	4228	718	3
1	4231	718	2
1	4243	719	1
1	4253	720	0
1	4266	722	1
1	4266	722	0
1	4283	724	1
1	4283	724	0
1	4284	724	1
1	4305	727	0
1	4321	730	1
1	4321	730	0
1	4332	732	1
1	4332	732	0
1	4333	732	1
1	4339	733	0
1	4357	737	1
1	4357	737	0
1	4371	739	1
1	4371	739	0
1	4396	742	1
1	4396	742	0
1	4453	755	1
1	4453	755	0
1	4462	757	1
1	4462	757	0
1	4513	765	1
1	4513	765	0
1	4559	775	1
1	4559	775	0
1	4568	777	1
1	4568	777	0
1	4577	779	1
1	4577	779	0
1	4593	783	1
1	4593	783	0
1	4594	783	1
1	4601	784	2
1	4603	784	1
1	4609	785	0
1	4633	792	1
1	4633	792	0
1	4634	792	1
1	4643	793	0
1	4650	794	1
1	4652	794	0
1	4661	796	1
1	4661	796	0
1	4681	801	1
1	4681	801	0
1	4708	805	1
1	4708	805	0
1	4709	805	1
1	4717	806	0
1	4730	810	1
1	4730	810	0
1	4772	819	1
1	4772	819	0
1	4781	820	1
1	4782	820	2
1	4783	820	3
1	4785	820	2
1	4792	821	3
1	4794	821	2
1	4801	822	1
1	4811	823	0
1	4831	828	1
1	4831	828	0
1	4840	829	1
1	4853	831	0
1	4854	831	1
1	4864	832	0
1	4890	837	1
1	4890	837	0
1	4908	841	1
1	4908	841	0
1	4909	841	1
1	4915	842	0
1	4926	845	1
1	4926	845	0
1	4931	846	1
1	4933	846	0
1	4968	852	1
1	4968	852	0
1	4984	854	1
1	4984	854	0
1	4989	855	1
1	4991	855	0
1	4999	857	1
1	5006	858	0
1	5013	859	1
1	5014	859	2
1	5017	859	1
1	5028	860	0
1	5035	861	1
1	5036	861	2
1	5044	861	1
1	5055	862	0
1	5093	868	1
1	5093	868	0
1	5094	868	1
1	5103	869	0
1	5117	871	1
1	5117	871	0
1	5132	873	1
1	5132	873	0
1	5165	879	1
1	5165	879	0
1	5166	879	1
1	5177	882	0
1	5182	883	1
1	5184	883	0
1	5189	884	1
1	5192	884	0
1	5207	887	1
1	5207	887	0
1	5208	887	1
1	5214	888	0
1	5223	890	1
1	5223	890	0
1	5224	890	1
1	5230	891	0
1	5239	893	1
1	5239	893	0
1	5258	895	1
1	5258	895	0
1	5267	896	1
1	5269	896	0
1	5325	906	1
1	5325	906	0
1	5389	918	1
1	5389	918	0
1	5421	922	1
1	5421	922	0
1	5435	924	1
1	5435	924	0
1	5451	926	1
1	5451	926	0
1	5460	928	1
1	5460	928	0
1	5522	939	1
1	5522	939	0
1	5531	941	1
1	5531	941	0
1	5551	946	1
1	5551	946	0
1	5556	947	1
1	5559	947	0
1	5566	948	1
1	5575	950	0
1	5588	954	1
1	5588	954	0
1	5597	956	1
1	5597	956	0
1	5602	957	1
1	5605	957	0
1	5622	961	1
1	5622	961	0
1	5640	965	1
1	5640	965	0
1	5660	968	1
1	5660	968	0
1	5679	972	1
1	5679	972	0
1	5699	977	1
1	5699	977	0
1	5720	981	1
1	5720	981	0
1	5734	984	1
1	5734	984	0
1	5735	984	1
1	5740	985	2
1	5742	985	1
1	5748	986	0
1	5764	989	1
1	5764	989	0
1	5765	989	1
1	5774	990	0
1	5781	991	1
1	5783	991	0
1	5838	1001	1
1	5838	1001	0
1	5843	1002	1
1	5845	1002	0
1	5854	1004	1
1	5854	1004	0
1	5862	1005	1
1	5864	1005	0
1	5889	1009	1
1	5889	1009	0
1	5904	1011	1
1	5904	1011	0
1	5916	1013	1
1	5916	1013	0
1	5944	1017	1
1	5944	1017	0
1	5954	1018	1
1	5956	1018	0
1	5994	1026	1
1	5994	1026	0
1	6030	1034	1
1	6030	1034	0
1	6039	1035	1
1	6040	1035	2
1	6043	1035	1
1	6054	1036	0
1	6071	1038	1
1	6071	1038	0
1	6072	1038	1
1	6082	1039	2
1	6091	1041	1
1	6100	1042	2
1	6102	1042	1
1	6114	1043	0
1	6139	1046	1
1	6139	1046	0
1	6148	1047	1
1	6150	1047	0
1	6166	1050	1
1	6166	1050	0
1	6182	1052	1
1	6182	1052	0
1	6202	1055	1
1	6202	1055	0
1	6227	1058	1
1	6227	1058	0
1	6276	1064	1
1	6276	1064	0
1	6277	1064	1
1	6293	1066	2
1	6299	1067	1
1	6305	1068	0
1	6310	1069	1
1	6314	1069	0
1	6361	1077	1
1	6361	1077	0
1	6383	1080	1
1	6383	1080	0
1	6392	1081	1
1	6394	1081	0
1	6407	1084	1
1	6407	1084	0
1	6416	1086	1
1	6416	1086	0
1	6436	1091	1
1	6436	1091	0
1	6441	1092	1
1	6445	1092	0
1	6459	1094	1
1	6465	1095	0
1	6470	1096	1
1	6472	1096	0
1	6494	1102	1
1	6494	1102	0
1	6503	1104	1
1	6503	1104	0
1	6524	1107	1
1	6524	1107	0
1	6533	1108	1
1	6535	1108	0
1	6574	1117	1
1	6574	1117	0
1	6597	1122	1
1	6597	1122	0
1	6598	1122	1
1	6606	1123	0
1	6624	1127	1
1	6624	1127	0
1	6629	1128	1
1	6633	1129	2
1	6637	1130	1
1	6642	1131	2
1	6644	1131	1
1	6650	1132	0
1	6669	1135	1
1	6669	1135	0
1	6685	1137	1
1	6685	1137	0
1	6712	1141	1
1	6712	1141	0
1	6722	1142	1
1	6724	1142	0
1	6743	1146	1
1	6743	1146	0
1	6744	1146	1
1	6750	1147	0
1	6755	1148	1
1	6757	1148	0
1	6762	1149	1
1	6763	1149	2
1	6773	1151	1
1	6786	1152	0
1	6809	1156	1
1	6809	1156	0
1	6814	1157	1
1	6816	1157	0
1	6832	1160	1
1	6832	1160	0
1	6841	1162	1
1	6841	1162	0
1	6846	1163	1
1	6847	1163	2
1	6849	1163	1
1	6854	1164	2
1	6856	1164	1
1	6862	1165	0
1	6874	1167	1
1	6874	1167	0
1	6893	1170	1
1	6893	1170	0
1	6925	1176	1
1	6925	1176	0
1	6953	1181	1
1	6953	1181	0
1	6989	1189	1
1	6989	1189	0
1	6996	1190	1
1	6998	1190	0
1	7003	1191	1
1	7004	1191	2
1	7006	1191	1
1	7012	1192	0
1	7025	1196	1
1	7025	1196	0
1	7034	1197	1
1	7036	1197	0
1	7045	1198	1
1	7048	1198	0
1	7057	1199	1
1	7058	1199	2
1	7070	1201	1
1	7078	1202	0
1	7083	1203	1
1	7087	1203	0
1	7110	1208	1
1	7110	1208	0
1	7138	1215	1
1	7138	1215	0
1	7178	1222	1
1	7178	1222	0
1	7183	1223	1
1	7184	1223	2
1	7186	1223	1
1	7191	1224	2
1	7193	1224	1
1	7198	1225	2
1	7200	1225	1
1	7206	1226	0
1	7218	1229	1
1	7218	1229	0
1	7227	1231	1
1	7227	1231	0
1	7236	1233	1
1	7236	1233	0
1	7252	1236	1
1	7252	1236	0
1	7261	1237	1
1	7265	1237	0
1	7274	1238	1
1	7277	1238	0
1	7322	1246	1
1	7322	1246	0
1	7331	1248	1
1	7331	1248	0
1	7349	1252	1