version 3
run Experimentos-815-20260508-20:06:18-31913
attr configname Experimentos
attr datetime 20260508-20:06:18
attr datetimef 20260508-200618
attr experiment Experimentos
attr inifile TwoQueues.ini
attr iterationvars "$p=0.7, $q=0.3, $Y=20, $m=2"
attr iterationvarsd p=0.7/q=0.3/Y=20/m=2
attr iterationvarsf p=0.7,q=0.3,Y=20,m=2-
attr measurement "$p=0.7, $q=0.3, $Y=20, $m=2"
attr network TwoQueues
attr processid 31913
attr repetition 15
attr replication #15
attr resultdir results
attr runnumber 815
attr seedset 815
itervar Y 20
itervar m 2
itervar p 0.7
itervar q 0.3
config description "Barrido completo de parámetros Proyecto 12"
config **.source1.p 0.7
config **.source1.q 0.2
config **.source2.p 0.6
config **.source2.q 0.3
config **.serverWithMaintenance.Y 20
config **.serverWithMaintenance.m 2
config network TwoQueues
config cpu-time-limit 5000s
config sim-time-limit 5000s
config warmup-period 400s
config repeat 20
config output-scalar-file results/Experimentos-p=0.7,q=0.3,Y=20,m=2--#15.sca
config output-vector-file results/Experimentos-p=0.7,q=0.3,Y=20,m=2--#15.vec
config **.vector-recording true

vector 0 TwoQueues.serverWithMaintenance residenceTime2:vector ETV
attr recordingmode vector
attr source delay2
attr title "Residence Time Class 2"
vector 1 TwoQueues.queue2 queueLengthStats:vector ETV
attr recordingmode vector
attr source qlen
attr title "Average Queue Length"
vector 2 TwoQueues.queue1 queueLengthStats:vector ETV
attr recordingmode vector
attr source qlen
attr title "Average Queue Length"
vector 3 TwoQueues.server residenceTime1:vector ETV
attr recordingmode vector
attr source delay1
attr title "Residence Time Class 1"
vector 4 TwoQueues.server throughputStats1:vector ETV
attr recordingmode vector
attr source throughput1
attr title "Throughput Class 1"
0	2469	413	1
0	2511	424	1
0	2561	432	1
0	2572	433	1
0	2609	440	1
0	2618	442	1
0	2670	453	1
0	2691	461	1
0	2708	463	1
0	2772	473	1
0	2814	480	1
0	2824	481	1
0	2834	482	1
0	2843	483	2
0	2875	492	1
0	2887	493	1
0	2921	501	1
0	2932	504	1
0	2955	507	1
0	2976	510	1
0	2992	513	1
0	3009	515	1
0	3019	516	1
0	3031	517	1
0	3049	520	2
0	3061	521	3
0	3073	522	2
0	3087	523	3
0	3098	524	2
0	3110	525	2
0	3120	526	2
0	3132	527	1
0	3143	528	1
0	3199	541	1
0	3213	543	1
0	3223	544	1
0	3259	551	1
0	3291	558	1
0	3313	564	1
0	3337	571	1
0	3348	573	1
0	3374	580	1
0	3384	581	2
0	3399	582	1
0	3429	585	3
0	3469	590	1
0	3539	604	1
0	3558	606	1
0	3595	611	1
0	3605	612	1
0	3612	613	1
0	3619	614	1
0	3627	615	1
0	3633	616	2
0	3647	618	1
0	3656	620	1
0	3663	621	1
0	3671	622	1
0	3677	623	2
0	3686	625	1
0	3705	627	1
0	3715	628	2
0	3733	630	1
0	3745	631	1
0	3767	634	2
0	3783	638	1
0	3800	640	1
0	3810	641	2
0	3816	642	2
0	3842	650	1
0	3860	654	1
0	3877	656	1
0	3913	661	1
0	3962	667	1
0	3989	670	1
0	4000	671	1
0	4012	672	1
0	4023	673	2
0	4036	674	1
0	4091	682	1
0	4113	688	1
0	4134	694	1
0	4147	695	2
0	4157	696	3
0	4177	699	5
0	4184	700	2
0	4195	701	2
0	4211	703	1
0	4225	704	1
0	4255	708	1
0	4262	709	2
0	4268	710	2
0	4279	713	1
0	4296	716	1
0	4302	717	2
0	4311	719	1
0	4325	721	1
0	4351	725	1
0	4387	732	1
0	4394	733	1
0	4411	739	1
0	4440	745	1
0	4451	746	1
0	4460	747	2
0	4475	750	3
0	4485	751	4
0	4534	760	1
0	4634	775	1
0	4658	778	1
0	4675	780	1
0	4681	781	2
0	4697	783	1
0	4717	788	1
0	4727	789	1
0	4747	794	1
0	4791	800	1
0	4801	801	1
0	4817	803	1
0	4838	807	1
0	4848	808	1
0	4870	813	1
0	4877	814	1
0	4904	818	1
0	4941	826	1
0	4956	829	2
0	4966	830	2
0	4975	831	2
0	5005	840	1
0	5049	846	1
0	5060	847	2
0	5091	851	1
0	5123	855	1
0	5132	856	2
0	5166	863	1
0	5180	865	1
0	5212	871	1
0	5239	876	1
0	5257	881	1
0	5271	883	1
0	5295	889	1
0	5311	891	1
0	5322	892	1
0	5341	895	1
0	5347	896	2
0	5360	899	2
0	5366	900	3
0	5373	901	1
0	5400	908	1
0	5409	909	2
0	5515	928	1
0	5537	933	1
0	5574	938	1
0	5625	946	1
0	5644	948	1
0	5669	954	1
0	5688	956	1
0	5700	957	1
0	5749	964	1
0	5760	966	1
0	5774	969	1
0	5819	979	1
0	5826	980	1
0	5834	981	1
0	5841	982	2
0	5860	985	4
0	5869	986	2
0	5880	988	1
0	5890	989	1
0	5915	993	1
0	5939	996	1
0	5967	1000	1
0	5976	1002	1
0	6017	1012	1
0	6029	1013	2
0	6037	1014	2
0	6043	1015	3
0	6049	1016	4
0	6056	1017	1
0	6081	1022	1
0	6090	1024	1
0	6141	1037	1
0	6159	1041	1
0	6166	1042	1
0	6175	1044	1
0	6189	1048	1
0	6198	1050	1
0	6207	1052	1
0	6229	1058	1
0	6238	1060	1
0	6245	1061	1
0	6261	1064	1
0	6270	1066	1
0	6355	1079	1
0	6372	1081	1
0	6382	1082	1
0	6389	1083	1
0	6421	1090	1
0	6430	1091	2
0	6437	1092	1
0	6444	1093	1
0	6451	1094	1
0	6461	1095	1
0	6473	1097	1
0	6479	1098	2
0	6496	1101	2
0	6507	1102	1
0	6524	1105	1
0	6550	1109	1
0	6566	1111	1
0	6594	1115	1
0	6622	1121	1
0	6629	1122	2
0	6635	1123	2
0	6646	1124	1
0	6669	1129	1
0	6679	1130	1
0	6689	1132	1
0	6695	1133	2
0	6729	1138	1
0	6746	1140	1
0	6762	1144	1
0	6771	1146	1
0	6781	1147	1
0	6800	1153	1
0	6812	1156	1
0	6835	1161	1
0	6844	1162	2
0	6851	1163	1
0	6918	1173	1
0	6944	1176	1
0	6976	1180	1
0	6999	1183	1
0	7045	1189	1
0	7073	1192	1
0	7083	1193	2
0	7095	1194	1
0	7106	1195	2
0	7118	1196	1
0	7192	1206	1
0	7203	1207	1
0	7253	1214	1
0	7283	1219	1
0	7303	1224	1
0	7343	1233	1
0	7378	1241	1
0	7420	1248	1
0	7436	1250	1
0	7464	1254	1
0	7477	1255	1
0	7488	1256	2
0	7498	1257	3
0	7507	1258	3
0	7517	1259	1
0	7537	1263	1
0	7578	1269	1
0	7598	1271	1
0	7637	1276	1
0	7657	1278	1
0	7717	1286	1
0	7735	1288	1
0	7769	1292	1
0	7787	1294	1
0	7808	1296	1
0	7818	1297	2
0	7837	1300	2
0	7844	1301	1
0	7859	1303	1
0	7865	1304	2
0	7907	1314	1
0	7934	1321	1
0	7962	1325	1
0	7972	1326	2
0	7988	1328	1
0	8004	1331	1
0	8022	1335	1
0	8032	1337	1
0	8038	1338	2
0	8045	1339	1
0	8059	1341	1
0	8082	1345	1
0	8093	1346	1
0	8104	1347	1
0	8148	1358	1
0	8158	1359	2
0	8190	1365	1
0	8200	1366	1
0	8225	1371	1
0	8233	1372	1
0	8242	1373	2
0	8252	1374	2
0	8265	1375	3
0	8275	1376	4
0	8285	1377	3
0	8307	1382	1
0	8318	1383	1
0	8342	1387	1
0	8384	1398	1
0	8395	1400	1
0	8427	1407	1
0	8439	1408	2
0	8450	1409	3
0	8460	1410	3
0	8466	1411	4
0	8475	1412	3
0	8499	1415	2
0	8508	1416	3
0	8514	1417	3
0	8520	1418	4
0	8550	1428	1
0	8557	1429	1
0	8573	1432	1
0	8580	1433	1
0	8587	1434	1
0	8597	1435	1
0	8608	1437	1
0	8627	1443	1
0	8637	1444	1
0	8649	1445	1
0	8659	1446	2
0	8684	1450	1
0	8701	1452	1
0	8728	1457	1
0	8739	1458	1
0	8753	1459	2
0	8776	1462	4
0	8786	1463	1
0	8796	1464	1
0	8814	1466	1
0	8826	1468	1
0	8837	1471	1
0	8859	1477	1
0	8866	1478	1
0	8876	1479	1
0	8886	1480	1
0	8896	1481	2
0	8911	1483	1
0	8961	1493	1
0	8972	1494	1
0	8980	1495	2
0	8993	1499	1
0	9000	1500	1
0	9046	1509	1
0	9056	1510	2
0	9067	1511	2
0	9092	1514	3
0	9141	1524	1
0	9158	1527	1
0	9170	1528	1
0	9179	1529	2
0	9195	1533	1
0	9216	1535	1
0	9227	1536	2
0	9238	1537	2
0	9291	1543	1
0	9314	1546	1
0	9325	1547	1
0	9350	1550	1
0	9360	1551	2
0	9388	1556	1
0	9475	1573	1
0	9496	1576	1
0	9522	1580	1
0	9531	1581	2
0	9548	1586	1
0	9569	1589	3
0	9580	1590	4
0	9591	1591	1
0	9601	1592	1
0	9648	1602	1
0	9669	1605	1
0	9679	1606	1
0	9699	1611	1
0	9738	1616	1
0	9764	1621	1
0	9774	1622	1
0	9785	1624	1
0	9799	1626	1
0	9810	1629	1
0	9817	1630	1
0	9843	1634	1
0	9859	1636	1
0	9868	1638	1
0	9875	1639	1
0	9886	1642	1
0	9903	1645	2
0	9913	1646	1
0	9947	1652	1
0	9957	1653	1
0	9994	1658	1
0	10005	1661	1
0	10027	1666	1
0	10051	1671	1
0	10057	1672	2
0	10064	1673	1
0	10086	1680	1
0	10103	1682	1
0	10109	1683	2
0	10127	1686	1
0	10140	1688	1
0	10150	1689	2
0	10174	1692	1
0	10186	1693	1
0	10223	1700	1
0	10233	1701	1
0	10252	1704	3
0	10286	1709	1
0	10316	1713	1
0	10322	1714	2
0	10340	1717	1
0	10352	1718	1
0	10363	1719	1
0	10369	1720	2
0	10379	1721	1
0	10388	1722	1
0	10397	1724	1
0	10405	1725	1
0	10411	1726	2
0	10422	1727	1
0	10431	1728	2
0	10437	1729	2
0	10446	1731	1
0	10478	1737	1
0	10485	1738	1
0	10495	1739	1
0	10517	1746	1
0	10526	1748	1
0	10533	1749	1
0	10544	1752	1
0	10582	1760	1
0	10601	1763	1
0	10619	1768	1
0	10635	1770	1
0	10658	1774	1
0	10670	1776	1
0	10681	1777	2
0	10703	1780	1
0	10714	1781	1
0	10724	1782	1
0	10745	1785	1
0	10770	1790	1
0	10779	1792	1
0	10796	1798	1
0	10821	1805	1
0	10827	1806	2
0	10843	1811	1
0	10876	1819	1
0	10886	1820	1
0	10906	1825	1
0	10943	1831	1
0	10955	1834	1
0	10965	1835	2
0	10976	1836	2
0	10991	1839	1
0	11041	1848	1
0	11086	1854	1
0	11098	1855	1
0	11110	1856	1
0	11122	1858	1
0	11129	1859	1
0	11138	1861	1
0	11152	1863	1
0	11161	1865	1
0	11180	1868	1
0	11204	1871	1
0	11216	1874	4
0	11227	1875	3
0	11235	1876	2
0	11241	1877	3
0	11251	1878	1
0	11271	1881	1
0	11277	1882	2
0	11288	1883	3
0	11331	1889	1
0	11342	1890	2
0	11363	1893	1
0	11383	1896	1
0	11408	1899	1
0	11418	1900	2
0	11424	1901	2
0	11435	1902	1
0	11462	1910	1
0	11493	1914	1
0	11506	1915	2
0	11520	1916	2
0	11546	1919	4
0	11555	1920	4
0	11561	1921	5
0	11571	1922	5
0	11614	1928	1
0	11635	1935	1
0	11647	1937	1
0	11658	1940	1
0	11672	1943	1
0	11690	1945	1
0	11705	1947	1
0	11714	1948	2
0	11721	1949	1
0	11728	1950	1
0	11735	1951	1
0	11744	1953	1
0	11760	1955	1
0	11799	1963	1
0	11809	1964	1
0	11840	1971	1
0	11853	1974	2
0	11859	1975	3
0	11866	1976	1
0	11879	1980	1
0	11886	1981	1
0	11893	1982	1
0	11936	1991	1
0	11967	2000	1
0	11978	2001	2
0	11989	2002	1
0	11995	2003	2
0	12027	2009	1
0	12045	2013	1
0	12052	2014	1
0	12081	2021	1
0	12088	2022	1
0	12108	2026	1
0	12137	2030	1
0	12146	2031	2
0	12161	2035	1
0	12227	2046	1
0	12272	2061	1
0	12300	2070	1
0	12312	2072	1
0	12334	2076	1
0	12347	2077	1
0	12369	2081	1
0	12401	2088	1
0	12432	2096	1
0	12460	2102	1
0	12470	2103	2
0	12478	2104	2
0	12500	2110	1
0	12537	2120	1
0	12550	2121	1
0	12592	2130	1
0	12608	2131	1
0	12627	2133	1
0	12675	2140	1
0	12682	2141	1
0	12696	2145	1
0	12712	2149	1
0	12732	2151	1
0	12743	2152	2
0	12752	2153	2
0	12762	2154	1
0	12774	2155	1
0	12787	2157	1
0	12794	2158	2
0	12800	2159	3
0	12806	2160	3
0	12826	2164	1
0	12838	2166	1
0	12905	2176	1
0	12934	2181	1
0	12940	2182	2
0	12947	2183	1
0	12989	2194	1
0	12996	2195	1
0	13014	2198	1
0	13050	2204	1
0	13060	2205	1
0	13073	2207	1
0	13085	2209	1
0	13124	2217	1
0	13135	2218	2
0	13160	2223	1
0	13172	2225	1
0	13191	2229	1
0	13198	2230	2
0	13204	2231	2
0	13218	2233	1
0	13226	2234	1
0	13232	2235	2
0	13239	2236	1
0	13250	2239	1
0	13260	2240	1
0	13288	2247	1
0	13298	2248	1
0	13314	2250	1
0	13330	2253	3
0	13336	2254	3
0	13348	2255	1
0	13366	2257	1
0	13377	2258	2
0	13388	2259	2
0	13438	2269	1
0	13446	2270	2
0	13452	2271	3
0	13458	2272	3
0	13465	2273	4
0	13471	2274	2
0	13487	2276	1
0	13512	2281	1
0	13518	2282	2
0	13524	2283	3
0	13551	2291	1
0	13561	2292	2
0	13574	2293	1
0	13585	2294	2
0	13605	2297	4
0	13615	2298	1
0	13622	2299	1
0	13635	2301	1
0	13646	2302	2
0	13658	2303	2
0	13678	2306	1
0	13690	2308	1
0	13719	2315	1
0	13745	2323	1
0	13754	2325	1
0	13767	2328	1
0	13781	2331	1
0	13811	2335	1
0	13870	2344	1
0	13879	2345	2
0	13888	2347	1
0	13902	2349	1
0	13976	2366	1
0	13985	2368	1
0	13997	2371	1
0	14004	2372	1
0	14012	2373	1
0	14018	2374	2
0	14031	2376	1
0	14055	2379	1
0	14065	2380	1
0	14090	2385	1
0	14099	2387	1
0	14156	2402	1
0	14194	2413	1
0	14219	2417	1
0	14226	2418	1
0	14240	2420	1
0	14247	2421	1
0	14263	2424	1
0	14283	2428	1
0	14301	2432	1
0	14312	2433	1
0	14322	2434	2
0	14335	2437	4
0	14351	2439	1
0	14363	2440	1
0	14408	2450	1
0	14438	2454	1
0	14456	2456	1
0	14469	2457	1
0	14516	2465	1
0	14523	2466	1
0	14539	2469	1
0	14550	2472	1
0	14564	2475	1
0	14627	2484	1
0	14640	2485	1
0	14650	2486	2
0	14687	2492	1
0	14700	2493	1
0	14710	2494	2
0	14717	2495	2
0	14723	2496	2
0	14738	2500	1
0	14744	2501	2
0	14753	2503	1
0	14766	2506	1
0	14781	2508	1
0	14793	2509	2
0	14807	2510	1
0	14831	2513	1
0	14887	2523	1
0	14921	2528	1
0	14932	2529	2
0	14944	2531	1
0	14955	2533	1
0	14985	2537	1
0	15037	2545	1
0	15061	2548	1
0	15070	2549	2
0	15131	2561	1
0	15172	2567	1
0	15178	2568	2
0	15190	2571	1
0	15207	2577	1
0	15230	2581	1
0	15240	2582	2
0	15251	2583	1
0	15269	2588	1
0	15296	2593	1
0	15331	2599	1
0	15338	2600	1
0	15362	2606	1
0	15405	2614	1
0	15451	2624	1
0	15473	2630	1
0	15492	2633	1
0	15503	2634	1
0	15527	2638	1
0	15536	2639	2
0	15553	2643	1
0	15564	2644	1
0	15575	2645	1
0	15602	2648	1
0	15616	2651	1
0	15633	2657	1
0	15640	2658	1
0	15649	2660	1
0	15689	2669	1
0	15700	2670	1
0	15706	2671	2
0	15719	2675	1
0	15729	2676	1
0	15773	2683	1
0	15822	2694	1
0	15843	2699	1
0	15849	2700	2
0	15933	2717	1
0	15973	2722	1
0	15986	2723	1
0	16003	2725	1
0	16027	2729	1
0	16060	2733	1
0	16086	2736	2
0	16104	2738	1
0	16212	2753	1
0	16218	2754	2
0	16228	2755	1
0	16245	2757	1
0	16251	2758	2
0	16264	2762	1
0	16275	2765	1
0	16291	2768	1
0	16329	2773	1
0	16342	2774	1
0	16359	2776	1
0	16389	2782	1
0	16396	2783	1
0	16412	2787	1
0	16473	2801	1
0	16479	2802	2
0	16508	2809	1
0	16515	2810	1
0	16532	2813	2
0	16553	2819	1
0	16575	2822	1
0	16582	2823	1
0	16601	2826	1
0	16646	2835	1
0	16664	2837	1
0	16724	2847	1
0	16753	2851	1
0	16774	2854	1
0	16792	2858	1
0	16808	2861	1
0	16847	2867	1
0	16933	2879	1
0	16944	2880	1
0	16967	2884	1
0	16977	2885	2
0	16983	2886	2
0	16990	2887	1
0	17017	2892	1
0	17032	2895	3
0	17047	2899	1
0	17085	2904	1
0	17152	2916	1
0	17161	2917	2
0	17193	2923	1
0	17232	2929	1
0	17244	2930	1
0	17254	2931	2
0	17264	2932	3
0	17274	2933	1
0	17280	2934	2
0	17287	2935	1
0	17303	2937	1
0	17323	2939	1
0	17351	2943	1
0	17362	2944	2
0	17372	2945	2
0	17383	2946	3
0	17392	2947	3
0	17410	2950	4
0	17416	2951	3
0	17423	2952	3
0	17429	2953	2
0	17438	2954	1
0	17444	2955	2
0	17454	2956	3
0	17466	2957	2
0	17478	2958	2
0	17510	2966	1
0	17541	2973	1
0	17555	2976	1
0	17573	2979	1
0	17590	2981	1
0	17659	2993	1
0	17677	2995	1
0	17688	2996	1
0	17706	2998	1
0	17725	3001	1
0	17734	3003	1
0	17754	3006	3
0	17767	3007	3
0	17779	3008	3
0	17789	3009	4
0	17799	3010	4
0	17807	3011	4
0	17816	3012	5
0	17857	3018	1
0	17881	3022	1
0	17892	3023	1
0	17904	3025	1
0	17914	3027	1
0	17920	3028	2
0	17927	3029	1
0	17957	3034	1
0	17964	3035	1
0	17984	3040	1
0	17996	3043	1
0	18009	3044	2
0	18049	3050	1
0	18084	3057	1
0	18148	3067	1
0	18160	3068	1
0	18172	3069	2
0	18183	3070	2
0	18192	3071	3
0	18199	3072	1
0	18206	3073	1
0	18213	3074	1
0	18253	3084	1
0	18277	3087	1
0	18302	3092	1
0	18314	3093	2
0	18323	3094	2
0	18335	3097	1
0	18341	3098	2
0	18378	3105	1
0	18389	3106	1
0	18404	3108	1
0	18451	3116	1
0	18483	3120	1
0	18495	3122	1
0	18504	3124	1
0	18528	3131	1
0	18539	3133	1
0	18551	3135	1
0	18606	3145	1
0	18613	3146	1
0	18642	3151	1
0	18660	3153	1
0	18693	3160	1
0	18703	3161	1
0	18714	3164	1
0	18732	3168	1
0	18743	3169	2
0	18754	3170	2
0	18777	3173	1
0	18784	3174	1
0	18805	3179	1
0	18811	3180	2
0	18828	3184	1
0	18881	3196	1
0	18893	3197	1
0	18947	3206	1
0	18997	3215	1
0	19004	3216	1
0	19014	3217	1
0	19045	3224	1
0	19077	3229	1
0	19087	3230	1
0	19098	3231	1
0	19113	3233	1
0	19123	3234	1
0	19157	3239	1
0	19182	3243	1
0	19191	3244	2
0	19197	3245	3
0	19204	3246	1
0	19215	3247	1
0	19248	3253	1
0	19262	3256	2
0	19278	3260	1
0	19294	3262	1
0	19343	3271	1
0	19352	3272	2
0	19366	3274	1
0	19383	3276	1
0	19408	3280	1
0	19415	3281	1
0	19447	3291	1
0	19453	3292	2
0	19463	3293	3
0	19471	3294	2
0	19479	3295	1
0	19488	3296	2
0	19508	3300	1
0	19521	3304	1
0	19533	3305	1
0	19544	3306	2
0	19556	3307	2
0	19573	3310	4
0	19584	3311	4
0	19590	3312	4
0	19596	3313	3
0	19603	3314	4
0	19609	3315	2
0	19620	3318	1
0	19630	3319	1
0	19650	3323	1
0	19660	3324	1
0	19675	3328	1
0	19691	3330	1
0	19710	3332	1
0	19720	3333	1
0	19732	3335	1
0	19762	3338	1
0	19774	3339	2
0	19785	3340	2
0	19796	3341	2
0	19826	3346	1
0	19847	3351	1
0	19917	3366	1
0	19926	3368	1
0	19935	3370	1
0	19944	3372	1
0	19953	3374	1
0	19964	3375	1
0	19977	3376	1
0	20000	3379	1
0	20010	3380	1
0	20029	3384	1
0	20040	3385	2
0	20052	3386	2
0	20061	3387	2
0	20067	3388	3
0	20077	3389	3
0	20103	3394	1
0	20110	3395	1
0	20140	3402	1
0	20151	3403	2
0	20177	3406	5
0	20190	3407	4
0	20200	3408	2
0	20224	3413	1
0	20243	3415	1
0	20257	3418	1
0	20281	3421	1
0	20309	3425	1
0	20352	3435	1
0	20359	3436	2
0	20369	3437	2
0	20396	3444	1
0	20440	3456	1
0	20452	3457	1
0	20483	3461	1
0	20490	3462	1
0	20497	3463	1
0	20513	3466	1
0	20520	3467	1
0	20552	3472	1
0	20578	3478	1
0	20619	3491	1
0	20626	3492	1
0	20636	3494	1
0	20642	3495	2
0	20719	3510	1
0	20729	3511	1
0	20760	3516	1
0	20766	3517	2
0	20784	3520	1
0	20794	3521	1
0	20831	3530	1
0	20863	3535	1
0	20869	3536	2
0	20897	3545	1
0	20906	3547	1
0	20937	3554	1
0	20968	3559	1
0	21023	3569	1
0	21033	3570	2
0	21058	3573	4
0	21069	3574	4
0	21078	3575	2
0	21089	3578	1
0	21105	3580	1
0	21121	3584	1
0	21134	3587	1
0	21164	3593	1
0	21175	3596	1
0	21185	3597	1
0	21205	3601	1
0	21234	3606	1
0	21251	3608	1
0	21271	3610	1
0	21287	3612	1
0	21294	3613	1
0	21317	3622	1
0	21365	3636	1
0	21379	3638	1
0	21391	3640	1
0	21411	3643	3
0	21419	3644	3
0	21425	3645	2
0	21432	3646	3
0	21439	3647	2
0	21451	3648	2
0	21491	3656	1
0	21501	3657	1
0	21521	3660	1
0	21531	3661	1
0	21557	3665	1
0	21580	3668	1
0	21604	3675	1
0	21614	3676	1
0	21647	3684	1
0	21663	3686	1
0	21679	3689	1
0	21691	3691	1
0	21700	3693	1
0	21732	3700	1
0	21764	3704	1
0	21770	3705	2
0	21787	3708	1
0	21793	3709	2
0	21811	3713	1
0	21821	3714	1
0	21872	3725	1
0	21882	3726	1
0	21889	3727	1
0	21896	3728	1
0	21935	3740	1
0	21976	3747	1
0	21997	3751	1
0	22004	3752	1
0	22013	3754	1
0	22031	3758	1
0	22044	3761	1
0	22056	3762	1
0	22079	3767	1
0	22092	3771	1
0	22104	3774	2
0	22119	3779	1
0	22140	3783	1
0	22187	3789	1
0	22198	3790	1
0	22216	3795	1
0	22272	3804	1
0	22291	3806	1
0	22318	3811	1
0	22339	3815	1
0	22350	3816	2
0	22364	3819	1
0	22373	3821	1
0	22441	3835	1
0	22448	3836	1
0	22464	3839	1
0	22471	3840	1
0	22494	3843	1
0	22506	3845	1
0	22536	3853	1
0	22554	3856	4
0	22586	3861	1
0	22600	3864	1
0	22611	3865	1
0	22619	3866	2
0	22654	3876	1
0	22679	3881	1
0	22686	3882	1
0	22693	3883	1
0	22702	3885	1
0	22720	3889	1
0	22729	3891	1
0	22738	3893	1
0	22748	3894	1
0	22759	3896	1
0	22796	3907	1
0	22826	3913	1
0	22844	3916	1
0	22874	3922	1
0	22886	3923	2
0	22907	3927	1
0	22916	3929	1
0	22923	3930	1
0	22975	3945	1
0	22986	3946	1
0	22998	3947	2
0	23015	3949	1
0	23098	3961	1
0	23109	3962	2
0	23122	3964	1
0	23128	3965	2
0	23216	3985	1
0	23234	3988	1
0	23255	3991	1
0	23284	3996	1
0	23298	3997	2
0	23341	4003	1
0	23356	4005	1
0	23368	4006	1
0	23436	4018	1
0	23452	4021	3
0	23458	4022	3
0	23504	4032	1
0	23511	4033	2
0	23517	4034	2
0	23528	4036	1
0	23551	4040	1
0	23560	4041	2
0	23569	4042	3
0	23575	4043	2
0	23582	4044	1
0	23596	4046	1
0	23606	4048	1
0	23612	4049	2
0	23626	4051	1
0	23633	4052	1
0	23640	4053	1
0	23663	4056	1
0	23670	4057	2
0	23680	4058	3
0	23699	4061	5
0	23708	4062	5
0	23716	4063	5
0	23786	4077	1
0	23819	4086	1
0	23829	4087	1
0	23849	4091	1
0	23882	4100	1
0	23934	4116	1
0	23946	4117	1
0	23986	4124	1
0	24000	4125	2
0	24010	4126	2
0	24039	4130	1
0	24052	4131	1
0	24071	4133	1
0	24081	4134	2
0	24119	4142	1
0	24142	4147	1
0	24175	4151	1
0	24202	4154	2
0	24212	4155	3
0	24221	4156	2
0	24247	4163	1
0	24259	4166	1
0	24265	4167	2
0	24284	4171	1
0	24290	4172	2
0	24299	4174	1
0	24311	4176	1
0	24329	4178	1
0	24335	4179	2
0	24345	4180	3
0	24373	4185	1
0	24384	4186	1
0	24390	4187	2
0	24401	4189	1
0	24415	4192	1
0	24424	4194	1
0	24478	4205	1
0	24502	4209	1
0	24514	4211	1
0	24521	4212	1
0	24528	4213	1
0	24544	4217	1
0	24555	4218	1
0	24565	4219	1
0	24589	4222	1
0	24600	4223	1
0	24612	4225	1
0	24624	4228	1
0	24631	4229	2
0	24639	4230	2
0	24647	4231	2
0	24656	4232	3
0	24664	4233	3
0	24670	4234	4
0	24679	4236	1
0	24686	4237	1
0	24699	4239	1
0	24724	4242	4
0	24738	4245	1
0	24785	4255	1
0	24810	4261	1
0	24828	4264	1
0	24847	4267	1
0	24868	4271	1
0	24880	4272	1
0	24898	4274	1
0	24917	4279	1
0	24923	4280	2
0	24930	4281	1
0	24941	4283	1
0	24956	4285	1
0	24987	4291	1
0	24999	4293	1
0	25006	4294	1
0	25029	4300	1
0	25038	4301	2
0	25065	4305	1
0	25139	4321	1
0	25148	4322	2
0	25169	4327	1
0	25175	4328	2
0	25225	4339	1
0	25252	4344	1
0	25278	4353	1
0	25310	4358	1
0	25321	4359	1
0	25336	4361	1
0	25348	4363	1
0	25368	4367	1
0	25389	4372	1
0	25396	4373	2
0	25405	4374	2
0	25411	4375	2
0	25417	4376	3
0	25424	4377	4
0	25434	4378	2
0	25448	4379	1
0	25485	4385	1
0	25494	4387	1
0	25514	4392	1
0	25521	4393	1
0	25528	4394	1
0	25535	4395	1
0	25544	4397	1
0	25582	4406	1
0	25617	4411	1
0	25626	4413	1
0	25633	4414	1
0	25643	4415	1
0	25658	4416	1
0	25687	4420	1
0	25701	4422	1
0	25730	4428	1
0	25752	4431	1
0	25764	4432	1
0	25776	4433	1
0	25787	4434	2
0	25812	4437	4
0	25819	4438	3
0	25825	4439	4
0	25831	4440	3
0	25888	4450	1
0	25900	4452	1
0	25910	4453	1
0	25920	4454	1
0	25926	4455	2
0	25970	4461	1
0	25989	4463	1
0	26000	4464	1
0	26006	4465	2
0	26020	4467	1
0	26054	4472	1
0	26064	4473	2
0	26086	4477	1
0	26092	4478	2
0	26101	4480	1
0	26110	4482	1
0	26122	4485	2
0	26154	4491	1
0	26161	4492	1
0	26180	4498	1
0	26192	4499	1
0	26220	4502	1
0	26242	4505	1
0	26249	4506	1
0	26259	4507	1
0	26289	4512	1
0	26328	4517	1
0	26345	4520	1
0	26372	4523	1
0	26396	4527	1
0	26403	4528	1
0	26410	4529	1
0	26426	4532	1
0	26457	4539	1
0	26476	4542	1
0	26483	4543	1
0	26502	4546	2
0	26546	4554	1
0	26565	4557	1
0	26575	4558	2
0	26583	4559	2
0	26590	4560	2
0	26597	4561	3
0	26604	4562	3
0	26611	4563	3
0	26617	4564	3
0	26627	4565	3
0	26639	4566	2
0	26647	4567	2
0	26661	4569	1
0	26675	4571	1
0	26688	4575	1
0	26696	4576	1
0	26702	4577	2
0	26724	4582	1
0	26746	4585	1
0	26765	4588	2
0	26795	4593	1
0	26811	4595	1
0	26829	4597	1
0	26854	4600	1
0	26900	4606	1
0	26913	4607	2
0	26924	4608	1
0	26935	4609	1
0	26948	4610	1
0	26958	4611	2
0	26978	4613	1
0	26988	4614	2
0	26995	4615	2
0	27002	4616	2
0	27008	4617	2
0	27065	4628	1
0	27081	4632	1
0	27090	4633	2
0	27106	4635	1
0	27128	4638	3
0	27164	4643	1
0	27188	4646	1
0	27194	4647	2
0	27205	4650	1
0	27239	4656	1
0	27246	4657	2
0	27252	4658	3
0	27262	4659	3
0	27271	4660	2
0	27281	4661	2
0	27352	4683	1
0	27361	4684	2
0	27391	4693	1
0	27419	4697	1
0	27431	4699	1
0	27450	4702	1
0	27460	4703	2
0	27475	4705	1
0	27502	4708	1
0	27542	4713	1
0	27589	4719	1
0	27607	4721	1
0	27636	4725	1
0	27645	4727	1
0	27656	4729	1
0	27672	4732	1
0	27684	4734	1
0	27696	4736	1
0	27705	4737	2
0	27716	4740	1
0	27729	4744	1
0	27751	4750	1
0	27784	4755	1
0	27804	4759	1
0	27811	4760	1
0	27834	4764	1
0	27844	4765	1
0	27853	4766	1
0	27864	4769	1
0	27887	4774	1
0	27899	4776	1
0	27909	4777	1
0	27924	4781	1
0	27931	4782	1
0	27941	4783	1
0	27958	4787	1
0	27976	4789	1
0	27982	4790	2
0	27989	4791	1
0	28013	4794	1
0	28036	4797	1
0	28045	4799	1
0	28054	4801	1
0	28070	4805	1
0	28082	4806	2
0	28095	4807	2
0	28104	4808	2
0	28110	4809	3
0	28125	4812	1
0	28151	4815	4
0	28164	4816	2
0	28174	4817	2
0	28184	4818	1
0	28194	4819	1
0	28207	4822	1
0	28230	4825	1
0	28240	4826	1
0	28254	4829	1
0	28279	4833	1
0	28293	4835	1
0	28308	4838	1
0	28319	4839	1
0	28338	4841	1
0	28349	4842	1
0	28361	4844	1
0	28396	4853	1
0	28408	4854	1
0	28427	4857	1
0	28443	4859	1
0	28462	4862	3
0	28472	4863	4
0	28496	4866	1
0	28512	4868	1
0	28524	4870	1
0	28544	4875	1
0	28555	4878	1
0	28586	4886	1
0	28598	4887	1
0	28623	4890	1
0	28641	4892	1
0	28668	4895	1
0	28678	4896	2
0	28704	4899	1
0	28747	4909	1
0	28757	4910	1
0	28767	4911	1
0	28773	4912	2
0	28791	4916	1
0	28802	4918	1
0	28829	4921	3
0	28839	4922	1
0	28886	4933	1
0	28893	4934	1
0	28909	4937	1
0	28916	4938	1
0	28923	4939	1
0	28930	4940	1
0	28937	4941	1
0	28955	4945	1
0	28971	4948	1
0	28985	4950	1
0	29017	4954	1
0	29042	4957	1
0	29059	4959	1
0	29065	4960	2
0	29085	4965	1
0	29095	4966	1
0	29106	4968	1
0	29113	4969	1
0	29141	4975	1
0	29190	4988	1
0	29214	4994	1
1	2465	412	1
1	2465	412	0
1	2507	423	1
1	2507	423	0
1	2552	431	1
1	2552	431	0
1	2563	432	1
1	2565	432	0
1	2603	439	1
1	2603	439	0
1	2614	441	1
1	2614	441	0
1	2666	452	1
1	2666	452	0
1	2687	460	1
1	2687	460	0
1	2701	462	1
1	2701	462	0
1	2764	472	1
1	2764	472	0
1	2810	479	1
1	2810	479	0
1	2815	480	1
1	2818	480	0
1	2825	481	1
1	2826	481	2
1	2830	481	1
1	2837	482	0
1	2869	491	1
1	2869	491	0
1	2877	492	1
1	2880	492	0
1	2917	500	1
1	2917	500	0
1	2928	503	1
1	2928	503	0
1	2948	506	1
1	2948	506	0
1	2970	509	1
1	2970	509	0
1	2986	512	1
1	2986	512	0
1	3003	514	1
1	3003	514	0
1	3010	515	1
1	3013	515	0
1	3020	516	1
1	3025	516	0
1	3037	518	1
1	3038	518	2
1	3042	519	1
1	3051	520	2
1	3052	520	3
1	3054	520	2
1	3066	521	1
1	3075	522	2
1	3080	522	1
1	3089	523	2
1	3091	523	1
1	3100	524	2
1	3103	524	1
1	3113	525	0
1	3122	526	1
1	3125	526	0
1	3134	527	1
1	3136	527	0
1	3193	540	1
1	3193	540	0
1	3207	542	1
1	3207	542	0
1	3215	543	1
1	3217	543	0
1	3252	550	1
1	3252	550	0
1	3287	557	1
1	3287	557	0
1	3307	563	1
1	3307	563	0
1	3333	570	1
1	3333	570	0
1	3342	572	1
1	3342	572	0
1	3366	579	1
1	3366	579	0
1	3367	579	1
1	3377	580	0
1	3386	581	1
1	3392	581	0
1	3401	582	1
1	3416	584	0
1	3460	589	1
1	3460	589	0
1	3535	603	1
1	3535	603	0
1	3549	605	1
1	3549	605	0
1	3588	610	1
1	3588	610	0
1	3597	611	1
1	3599	611	0
1	3606	612	1
1	3608	612	0
1	3613	613	1
1	3615	613	0
1	3620	614	1
1	3621	614	2
1	3623	614	1
1	3629	615	0
1	3641	617	1
1	3641	617	0
1	3652	619	1
1	3652	619	0
1	3657	620	1
1	3659	620	0
1	3664	621	1
1	3665	621	2
1	3667	621	1
1	3673	622	0
1	3682	624	1
1	3682	624	0
1	3696	626	1
1	3696	626	0
1	3697	626	1
1	3708	627	0
1	3726	629	1
1	3726	629	0
1	3735	630	1
1	3738	630	0
1	3752	632	1
1	3759	633	0
1	3779	637	1
1	3779	637	0
1	3791	639	1
1	3791	639	0
1	3792	639	1
1	3802	640	2
1	3804	640	1
1	3812	641	0
1	3838	649	1
1	3838	649	0
1	3856	653	1
1	3856	653	0
1	3868	655	1
1	3868	655	0
1	3904	660	1
1	3904	660	0
1	3954	666	1
1	3954	666	0
1	3981	669	1
1	3981	669	0
1	3991	670	1
1	3993	670	0
1	4002	671	1
1	4003	671	2
1	4005	671	1
1	4016	672	0
1	4025	673	1
1	4029	673	0
1	4085	681	1
1	4085	681	0
1	4109	687	1
1	4109	687	0
1	4126	693	1
1	4126	693	0
1	4127	693	1
1	4128	693	2
1	4136	694	3
1	4140	694	2
1	4150	695	1
1	4170	698	0
1	4171	698	1
1	4178	699	2
1	4180	699	1
1	4189	700	0
1	4204	702	1
1	4204	702	0
1	4213	703	1
1	4218	703	0
1	4248	707	1
1	4248	707	0
1	4249	707	1
1	4256	708	2
1	4258	708	1
1	4264	709	0
1	4275	712	1
1	4275	712	0
1	4289	715	1
1	4289	715	0
1	4290	715	1
1	4298	716	0
1	4307	718	1
1	4307	718	0
1	4319	720	1
1	4319	720	0
1	4343	724	1
1	4343	724	0
1	4383	731	1
1	4383	731	0
1	4388	732	1
1	4390	732	0
1	4407	738	1
1	4407	738	0
1	4434	744	1
1	4434	744	0
1	4442	745	1
1	4443	745	2
1	4445	745	1
1	4454	746	0
1	4461	747	1
1	4462	747	2
1	4471	749	1
1	4479	750	0
1	4530	759	1
1	4530	759	0
1	4627	774	1
1	4627	774	0
1	4651	777	1
1	4651	777	0
1	4668	779	1
1	4668	779	0
1	4669	779	1
1	4677	780	0
1	4689	782	1
1	4689	782	0
1	4711	787	1
1	4711	787	0
1	4719	788	1
1	4721	788	0
1	4741	793	1
1	4741	793	0
1	4783	799	1
1	4783	799	0
1	4793	800	1
1	4795	800	0
1	4809	802	1
1	4809	802	0
1	4832	806	1
1	4832	806	0
1	4839	807	1
1	4842	807	0
1	4866	812	1
1	4866	812	0
1	4871	813	1
1	4873	813	0
1	4896	817	1
1	4896	817	0
1	4937	825	1
1	4937	825	0
1	4945	827	1
1	4949	828	0
1	4950	828	1
1	4958	829	2
1	4960	829	1
1	4969	830	0
1	5001	839	1
1	5001	839	0
1	5039	845	1
1	5039	845	0
1	5040	845	1
1	5053	846	0
1	5084	850	1
1	5084	850	0
1	5115	854	1
1	5115	854	0
1	5116	854	1
1	5126	855	0
1	5162	862	1
1	5162	862	0
1	5174	864	1
1	5174	864	0
1	5206	870	1
1	5206	870	0
1	5233	875	1
1	5233	875	0
1	5253	880	1
1	5253	880	0
1	5265	882	1
1	5265	882	0
1	5289	888	1
1	5289	888	0
1	5303	890	1
1	5303	890	0
1	5313	891	1
1	5315	891	0
1	5336	894	1
1	5336	894	0
1	5337	894	1
1	5343	895	0
1	5351	897	1
1	5352	897	2
1	5356	898	1
1	5362	899	0
1	5367	900	1
1	5369	900	0
1	5393	907	1
1	5393	907	0
1	5394	907	1
1	5403	908	0
1	5508	927	1
1	5508	927	0
1	5533	932	1
1	5533	932	0
1	5566	937	1
1	5566	937	0
1	5619	945	1
1	5619	945	0
1	5637	947	1
1	5637	947	0
1	5665	953	1
1	5665	953	0
1	5677	955	1
1	5677	955	0
1	5690	956	1
1	5693	956	0
1	5743	963	1
1	5743	963	0
1	5754	965	1
1	5754	965	0
1	5770	968	1
1	5770	968	0
1	5815	978	1
1	5815	978	0
1	5820	979	1
1	5822	979	0
1	5827	980	1
1	5828	980	2
1	5830	980	1
1	5835	981	2
1	5837	981	1
1	5851	984	0
1	5852	984	1
1	5863	985	0
1	5874	987	1
1	5874	987	0
1	5882	988	1
1	5884	988	0
1	5904	992	1
1	5904	992	0
1	5931	995	1
1	5931	995	0
1	5961	999	1
1	5961	999	0
1	5972	1001	1
1	5972	1001	0
1	6012	1011	1
1	6012	1011	0
1	6013	1011	1
1	6018	1012	2
1	6019	1012	3
1	6020	1012	4
1	6023	1012	3
1	6033	1013	2
1	6039	1014	1
1	6045	1015	0
1	6050	1016	1
1	6052	1016	0
1	6077	1021	1
1	6077	1021	0
1	6086	1023	1
1	6086	1023	0
1	6137	1036	1
1	6137	1036	0
1	6155	1040	1
1	6155	1040	0
1	6160	1041	1
1	6162	1041	0
1	6171	1043	1
1	6171	1043	0
1	6185	1047	1
1	6185	1047	0
1	6194	1049	1
1	6194	1049	0
1	6203	1051	1
1	6203	1051	0
1	6225	1057	1
1	6225	1057	0
1	6234	1059	1
1	6234	1059	0
1	6239	1060	1
1	6241	1060	0
1	6255	1063	1
1	6255	1063	0
1	6266	1065	1
1	6266	1065	0
1	6348	1078	1
1	6348	1078	0
1	6365	1080	1
1	6365	1080	0
1	6374	1081	1
1	6376	1081	0
1	6383	1082	1
1	6385	1082	0
1	6414	1089	1
1	6414	1089	0
1	6415	1089	1
1	6424	1090	0
1	6431	1091	1
1	6433	1091	0
1	6438	1092	1
1	6440	1092	0
1	6445	1093	1
1	6447	1093	0
1	6452	1094	1
1	6455	1094	0
1	6468	1096	1
1	6468	1096	0
1	6469	1096	1
1	6475	1097	0
1	6486	1099	1
1	6492	1100	0
1	6497	1101	1
1	6501	1101	0
1	6520	1104	1
1	6520	1104	0
1	6541	1108	1
1	6541	1108	0
1	6560	1110	1
1	6560	1110	0
1	6588	1114	1
1	6588	1114	0
1	6617	1120	1
1	6617	1120	0
1	6618	1120	1
1	6623	1121	2
1	6625	1121	1
1	6631	1122	0
1	6636	1123	1
1	6640	1123	0
1	6663	1128	1
1	6663	1128	0
1	6671	1129	1
1	6673	1129	0
1	6684	1131	1
1	6684	1131	0
1	6685	1131	1
1	6691	1132	0
1	6721	1137	1
1	6721	1137	0
1	6739	1139	1
1	6739	1139	0
1	6758	1143	1
1	6758	1143	0
1	6767	1145	1
1	6767	1145	0
1	6772	1146	1
1	6775	1146	0
1	6796	1152	1
1	6796	1152	0
1	6808	1155	1
1	6808	1155	0
1	6828	1160	1
1	6828	1160	0
1	6829	1160	1
1	6838	1161	0
1	6845	1162	1
1	6847	1162	0
1	6906	1172	1
1	6906	1172	0
1	6937	1175	1
1	6937	1175	0
1	6969	1179	1
1	6969	1179	0
1	6992	1182	1
1	6992	1182	0
1	7037	1188	1
1	7037	1188	0
1	7063	1191	1
1	7063	1191	0
1	7064	1191	1
1	7076	1192	0
1	7085	1193	1
1	7086	1193	2
1	7088	1193	1
1	7099	1194	0
1	7108	1195	1
1	7111	1195	0
1	7185	1205	1
1	7185	1205	0
1	7194	1206	1
1	7196	1206	0
1	7247	1213	1
1	7247	1213	0
1	7279	1218	1
1	7279	1218	0
1	7299	1223	1
1	7299	1223	0
1	7336	1232	1
1	7336	1232	0
1	7374	1240	1
1	7374	1240	0
1	7411	1247	1
1	7411	1247	0
1	7430	1249	1
1	7430	1249	0
1	7457	1253	1
1	7457	1253	0
1	7466	1254	1
1	7467	1254	2
1	7468	1254	3
1	7470	1254	2
1	7479	1255	3
1	7481	1255	2
1	7491	1256	1
1	7501	1257	0
1	7508	1258	1
1	7511	1258	0
1	7531	1262	1
1	7531	1262	0
1	7570	1268	1
1	7570	1268	0
1	7588	1270	1
1	7588	1270	0
1	7630	1275	1
1	7630	1275	0
1	7647	1277	1
1	7647	1277	0
1	7708	1285	1
1	7708	1285	0
1	7727	1287	1
1	7727	1287	0
1	7759	1291	1
1	7759	1291	0
1	7780	1293	1
1	7780	1293	0
1	7799	1295	1
1	7799	1295	0
1	7800	1295	1
1	7811	1296	0