version 3
run Experimentos-676-20260514-09:21:30-6807
attr configname Experimentos
attr datetime 20260514-09:21:30
attr datetimef 20260514-092130
attr experiment Experimentos
attr inifile TwoQueues.ini
attr iterationvars "$p=0.7, $q=0.2, $Y=30, $m=3"
attr iterationvarsd p=0.7/q=0.2/Y=30/m=3
attr iterationvarsf p=0.7,q=0.2,Y=30,m=3-
attr measurement "$p=0.7, $q=0.2, $Y=30, $m=3"
attr network TwoQueues
attr processid 6807
attr repetition 16
attr replication #16
attr resultdir results
attr runnumber 676
attr seedset 676
itervar Y 30
itervar m 3
itervar p 0.7
itervar q 0.2
config description "Barrido completo de parámetros Proyecto 12"
config **.source1.p 0.7
config **.source1.q 0.2
config **.source2.p 0.6
config **.source2.q 0.2
config **.serverWithMaintenance.Y 30
config **.serverWithMaintenance.m 3
config network TwoQueues
config cpu-time-limit 5000s
config sim-time-limit 5000s
config warmup-period 400s
config repeat 20
config output-scalar-file results/Experimentos-p=0.7,q=0.2,Y=30,m=3--#16.sca
config output-vector-file results/Experimentos-p=0.7,q=0.2,Y=30,m=3--#16.vec
config **.vector-recording true

vector 0 TwoQueues.serverWithMaintenance residenceTime2:vector ETV
attr recordingmode vector
attr source delay2
attr title "Residence Time Class 2"
vector 1 TwoQueues.queue2 queueLengthStats:vector ETV
attr recordingmode vector
attr source qlen
attr title "Average Queue Length"
vector 2 TwoQueues.queue1 queueLengthStats:vector ETV
attr recordingmode vector
attr source qlen
attr title "Average Queue Length"
vector 3 TwoQueues.server residenceTime1:vector ETV
attr recordingmode vector
attr source delay1
attr title "Residence Time Class 1"
vector 4 TwoQueues.server throughputStats1:vector ETV
attr recordingmode vector
attr source throughput1
attr title "Throughput Class 1"
0	2287	400	1
0	2315	407	1
0	2321	408	2
0	2331	410	1
0	2337	411	2
0	2369	422	1
0	2391	427	1
0	2407	428	1
0	2418	429	1
0	2437	431	1
0	2452	432	2
0	2479	435	1
0	2511	439	1
0	2570	447	1
0	2602	451	2
0	2619	453	1
0	2656	460	1
0	2699	469	1
0	2725	473	1
0	2734	474	2
0	2744	476	1
0	2753	477	2
0	2764	479	1
0	2782	482	1
0	2793	483	1
0	2799	484	2
0	2828	491	1
0	2880	498	1
0	2907	504	1
0	2993	526	1
0	3018	531	1
0	3047	537	1
0	3066	540	1
0	3157	563	1
0	3192	573	1
0	3203	576	1
0	3212	578	1
0	3248	588	1
0	3254	589	2
0	3266	590	1
0	3276	591	2
0	3291	595	1
0	3304	598	1
0	3318	601	1
0	3333	605	4
0	3340	606	4
0	3346	607	2
0	3355	609	1
0	3387	615	1
0	3406	621	1
0	3437	626	1
0	3456	628	1
0	3538	652	1
0	3548	653	1
0	3555	654	1
0	3590	664	1
0	3698	688	1
0	3735	695	1
0	3755	697	1
0	3825	706	1
0	3852	709	1
0	3863	710	1
0	3874	711	1
0	3970	728	1
0	3996	734	1
0	4002	735	2
0	4036	747	1
0	4054	750	1
0	4155	774	1
0	4187	779	1
0	4210	783	1
0	4220	784	1
0	4252	788	1
0	4283	792	1
0	4377	807	1
0	4423	816	1
0	4434	817	1
0	4468	824	1
0	4489	828	1
0	4496	829	1
0	4512	831	1
0	4565	842	1
0	4575	843	2
0	4581	844	2
0	4602	847	1
0	4613	850	1
0	4627	852	1
0	4662	862	1
0	4671	864	1
0	4768	880	1
0	4846	899	1
0	4927	927	1
0	4934	928	1
0	4963	935	1
0	4979	938	1
0	4998	941	1
0	5019	944	1
0	5033	945	1
0	5044	946	1
0	5062	948	1
0	5144	962	1
0	5161	964	1
0	5268	982	1
0	5286	984	1
0	5320	988	2
0	5393	1001	1
0	5403	1002	1
0	5421	1005	1
0	5461	1016	1
0	5486	1020	1
0	5499	1022	1
0	5508	1023	2
0	5539	1029	1
0	5587	1038	1
0	5597	1039	1
0	5615	1043	1
0	5638	1046	1
0	5675	1057	1
0	5687	1059	1
0	5727	1069	1
0	5736	1071	1
0	5757	1075	1
0	5840	1093	1
0	5847	1094	1
0	5859	1097	1
0	5865	1098	2
0	5876	1101	1
0	5885	1103	1
0	5895	1105	1
0	5902	1106	2
0	5908	1107	2
0	5940	1113	1
0	5947	1114	1
0	5958	1115	1
0	5979	1119	2
0	5988	1120	2
0	6001	1122	1
0	6046	1136	1
0	6057	1137	2
0	6068	1138	3
0	6116	1148	1
0	6123	1149	1
0	6141	1153	1
0	6189	1163	1
0	6198	1164	2
0	6208	1165	1
0	6217	1166	1
0	6244	1172	1
0	6251	1173	1
0	6261	1175	1
0	6267	1176	2
0	6283	1179	1
0	6300	1182	1
0	6306	1183	2
0	6317	1186	1
0	6339	1191	1
0	6364	1197	1
0	6371	1198	1
0	6394	1203	1
0	6403	1204	2
0	6410	1205	1
0	6425	1210	1
0	6438	1214	1
0	6448	1215	1
0	6464	1219	1
0	6475	1222	1
0	6500	1226	1
0	6582	1237	1
0	6604	1244	1
0	6618	1246	1
0	6666	1253	1
0	6729	1264	1
0	6768	1270	1
0	6783	1271	1
0	6815	1276	1
0	6831	1280	1
0	6906	1300	1
0	6944	1305	1
0	6955	1306	1
0	7010	1317	1
0	7021	1320	1
0	7052	1327	1
0	7137	1343	1
0	7144	1344	1
0	7159	1346	1
0	7169	1347	2
0	7182	1348	3
0	7193	1349	4
0	7202	1350	3
0	7211	1351	3
0	7256	1360	1
0	7263	1361	1
0	7272	1363	1
0	7286	1367	1
0	7305	1371	5
0	7315	1372	4
0	7369	1384	1
0	7381	1385	1
0	7392	1386	2
0	7403	1387	1
0	7470	1399	1
0	7477	1400	1
0	7511	1407	1
0	7518	1408	1
0	7535	1414	1
0	7572	1420	1
0	7583	1423	1
0	7615	1429	1
0	7626	1432	1
0	7705	1449	1
0	7722	1451	1
0	7769	1457	1
0	7828	1468	1
0	7835	1469	1
0	7870	1476	1
0	7877	1477	2
0	7883	1478	2
0	7922	1485	1
0	7929	1486	1
0	7964	1495	1
0	7983	1500	1
0	7992	1501	2
0	8021	1507	1
0	8044	1510	1
0	8087	1517	1
0	8113	1525	1
0	8124	1526	1
0	8132	1527	2
0	8141	1529	1
0	8148	1530	1
0	8171	1533	1
0	8186	1535	1
0	8227	1544	1
0	8236	1545	2
0	8263	1554	1
0	8277	1557	1
0	8313	1570	1
0	8324	1573	1
0	8376	1584	1
0	8387	1586	1
0	8424	1593	1
0	8441	1596	1
0	8451	1597	2
0	8498	1605	1
0	8511	1609	1
0	8534	1613	1
0	8609	1626	1
0	8642	1630	1
0	8673	1634	1
0	8722	1640	1
0	8754	1645	1
0	8760	1646	2
0	8767	1647	1
0	8776	1649	1
0	8802	1655	1
0	8829	1660	1
0	8894	1684	1
0	8914	1686	1
0	8977	1695	1
0	8986	1696	2
0	8997	1699	1
0	9010	1702	1
0	9022	1703	1
0	9064	1710	1
0	9075	1713	1
0	9083	1714	1
0	9092	1715	2
0	9105	1718	1
0	9129	1724	1
0	9244	1745	1
0	9284	1754	1
0	9305	1758	1
0	9312	1759	1
0	9346	1771	1
0	9361	1775	1
0	9376	1777	1
0	9403	1780	1
0	9414	1781	2
0	9436	1785	1
0	9448	1787	1
0	9481	1795	1
0	9545	1809	1
0	9568	1814	1
0	9578	1815	2
0	9613	1824	1
0	9620	1825	1
0	9650	1830	1
0	9693	1840	1
0	9725	1850	1
0	9740	1855	1
0	9755	1859	1
0	9793	1869	1
0	9822	1876	1
0	9838	1879	1
0	9852	1881	1
0	9865	1885	1
0	9890	1890	1
0	9967	1906	1
0	9978	1909	1
0	10016	1914	1
0	10032	1916	1
0	10045	1918	1
0	10101	1928	1
0	10108	1929	1
0	10115	1930	1
0	10146	1937	1
0	10205	1955	1
0	10212	1956	1
0	10239	1962	1
0	10252	1965	1
0	10277	1971	1
0	10293	1973	1
0	10338	1984	1
0	10345	1985	1
0	10515	2027	1
0	10529	2030	1
0	10561	2034	1
0	10588	2041	1
0	10597	2043	1
0	10625	2050	1
0	10635	2051	2
0	10673	2060	1
0	10728	2076	1
0	10737	2078	1
0	10756	2082	1
0	10762	2083	2
0	10782	2088	1
0	10811	2094	1
0	10821	2095	1
0	10831	2096	1
0	10843	2097	1
0	10925	2112	1
0	10938	2116	1
0	10967	2123	1
0	10992	2128	1
0	11002	2129	1
0	11013	2131	1
0	11020	2132	1
0	11027	2133	1
0	11089	2148	1
0	11101	2149	1
0	11121	2152	1
0	11127	2153	2
0	11138	2156	1
0	11167	2160	2
0	11185	2164	1
0	11237	2175	1
0	11246	2177	1
0	11294	2185	1
0	11325	2194	1
0	11409	2211	1
0	11423	2212	1
0	11434	2213	2
0	11476	2222	1
0	11487	2225	1
0	11498	2227	1
0	11532	2235	1
0	11553	2243	1
0	11560	2244	1
0	11576	2247	1
0	11658	2261	1
0	11705	2269	1
0	11712	2270	1
0	11719	2271	1
0	11744	2275	1
0	11800	2282	1
0	11862	2295	1
0	11903	2303	1
0	11953	2313	1
0	12053	2342	1
0	12111	2352	1
0	12221	2378	1
0	12275	2389	1
0	12306	2398	1
0	12328	2402	3
0	12339	2403	4
0	12349	2404	2
0	12358	2405	1
0	12394	2413	1
0	12401	2414	1
0	12437	2419	1
0	12447	2420	2
0	12464	2422	1
0	12498	2428	1
0	12532	2432	1
0	12543	2433	1
0	12605	2446	1
0	12627	2451	1
0	12650	2455	1
0	12681	2464	1
0	12710	2471	1
0	12721	2473	1
0	12742	2479	1
0	12751	2480	2
0	12762	2482	1
0	12773	2484	1
0	12785	2485	1
0	12797	2486	1
0	12827	2491	1
0	12848	2494	1
0	12860	2496	1
0	12871	2498	1
0	12881	2499	1
0	12895	2501	1
0	12911	2506	1
0	12950	2517	1
0	12964	2520	1
0	12974	2521	1
0	13018	2528	1
0	13049	2534	1
0	13071	2541	1
0	13135	2556	1
0	13145	2557	2
0	13165	2560	1
0	13171	2561	2
0	13206	2568	1
0	13212	2569	2
0	13232	2573	1
0	13242	2574	1
0	13253	2575	1
0	13272	2578	1
0	13308	2587	1
0	13319	2589	1
0	13389	2600	1
0	13396	2601	1
0	13406	2602	1
0	13430	2608	1
0	13468	2616	1
0	13562	2634	1
0	13597	2639	1
0	13652	2649	1
0	13676	2652	1
0	13704	2655	1
0	13715	2656	2
0	13745	2660	3
0	13763	2663	1
0	13791	2667	1
0	13839	2675	1
0	13850	2676	2
0	13884	2682	1
0	13896	2684	1
0	13916	2686	1
0	13976	2698	1
0	13985	2700	1
0	13995	2701	1
0	14030	2709	1
0	14044	2712	1
0	14074	2722	1
0	14105	2730	1
0	14114	2732	1
0	14140	2737	1
0	14147	2738	2
0	14156	2739	2
0	14195	2749	1
0	14234	2753	1
0	14244	2754	2
0	14263	2756	1
0	14273	2757	2
0	14299	2760	1
0	14335	2765	1
0	14342	2766	1
0	14381	2773	1
0	14408	2779	1
0	14462	2788	1
0	14495	2792	5
0	14505	2793	4
0	14515	2794	5
0	14523	2795	4
0	14532	2796	4
0	14540	2797	4
0	14569	2804	1
0	14585	2807	1
0	14596	2810	1
0	14629	2819	1
0	14640	2820	2
0	14650	2821	2
0	14662	2823	1
0	14692	2833	1
0	14751	2845	1
0	14768	2851	1
0	14777	2853	1
0	14847	2873	1
0	14865	2877	1
0	14884	2881	1
0	14891	2882	2
0	14897	2883	2
0	14904	2884	1
0	14998	2904	1
0	15022	2907	1
0	15034	2909	1
0	15041	2910	1
0	15071	2915	1
0	15111	2921	1
0	15129	2924	1
0	15157	2929	1
0	15183	2933	1
0	15216	2941	1
0	15226	2942	1
0	15249	2945	1
0	15341	2962	1
0	15357	2964	1
0	15382	2968	1
0	15416	2974	1
0	15422	2975	2
0	15431	2977	1
0	15438	2978	1
0	15463	2983	1
0	15471	2984	1
0	15478	2985	2
0	15484	2986	2
0	15493	2988	1
0	15509	2990	1
0	15522	2991	1
0	15533	2992	2
0	15563	2998	1
0	15574	3001	1
0	15581	3002	1
0	15588	3003	1
0	15613	3009	1
0	15624	3010	1
0	15689	3021	1
0	15696	3022	1
0	15775	3039	1
0	15786	3041	1
0	15808	3045	2
0	15815	3046	1
0	15849	3052	1
0	15872	3056	1
0	15882	3057	1
0	15929	3064	1
0	15941	3065	1
0	15960	3067	1
0	15972	3068	2
0	15981	3069	2
0	15997	3072	1
0	16008	3075	1
0	16043	3085	1
0	16110	3101	1
0	16140	3106	1
0	16196	3119	1
0	16207	3122	1
0	16214	3123	1
0	16244	3128	1
0	16254	3129	2
0	16272	3132	1
0	16290	3135	1
0	16308	3140	1
0	16347	3152	1
0	16354	3153	1
0	16384	3157	1
0	16460	3181	1
0	16480	3185	1
0	16494	3188	1
0	16525	3195	1
0	16549	3199	2
0	16606	3211	1
0	16619	3215	1
0	16656	3220	1
0	16699	3230	1
0	16732	3235	1
0	16766	3240	1
0	16802	3245	1
0	16826	3250	1
0	16836	3251	1
0	16855	3258	1
0	16866	3261	1
0	16884	3265	1
0	16907	3270	1
0	16918	3271	2
0	16946	3276	1
0	16955	3278	1
0	16962	3279	1
0	17073	3304	1
0	17079	3305	2
0	17124	3311	1
0	17157	3319	1
0	17175	3325	1
0	17181	3326	2
0	17208	3332	1
0	17231	3335	1
0	17259	3340	1
0	17306	3348	1
0	17316	3349	2
0	17342	3354	1
0	17363	3358	3
0	17373	3359	1
0	17384	3362	1
0	17391	3363	1
0	17417	3366	1
0	17428	3367	1
0	17452	3371	1
0	17459	3372	1
0	17502	3382	1
0	17513	3383	1
0	17523	3384	1
0	17569	3392	1
0	17608	3400	1
0	17619	3401	1
0	17680	3416	1
0	17689	3417	2
0	17709	3421	1
0	17719	3422	1
0	17736	3424	1
0	17764	3432	1
0	17791	3437	1
0	17838	3444	1
0	17848	3445	2
0	17888	3454	1
0	17916	3458	1
0	17923	3459	1
0	17934	3460	1
0	17946	3461	1
0	17957	3462	1
0	18059	3483	1
0	18102	3493	1
0	18156	3505	1
0	18178	3508	1
0	18184	3509	2
0	18223	3516	1
0	18230	3517	1
0	18241	3520	1
0	18248	3521	1
0	18305	3531	1
0	18330	3536	1
0	18353	3541	1
0	18366	3544	1
0	18399	3554	1
0	18414	3558	1
0	18458	3567	1
0	18467	3568	2
0	18475	3569	1
0	18484	3570	2
0	18504	3574	1
0	18515	3575	1
0	18570	3585	1
0	18582	3586	1
0	18615	3590	1
0	18645	3597	1
0	18652	3598	1
0	18686	3603	1
0	18697	3604	1
0	18728	3610	1
0	18771	3618	1
0	18783	3619	1
0	18866	3633	1
0	18884	3635	1
0	18910	3638	1
0	18936	3642	1
0	18950	3644	1
0	18979	3648	1
0	18986	3649	2
0	18993	3650	2
0	18999	3651	2
0	19020	3654	1
0	19062	3666	1
0	19102	3674	1
0	19122	3676	1
0	19131	3677	2
0	19195	3694	1
0	19244	3711	1
0	19260	3714	1
0	19267	3715	1
0	19334	3731	1
0	19345	3733	1
0	19355	3734	1
0	19414	3746	1
0	19425	3747	1
0	19444	3749	1
0	19535	3769	1
0	19604	3786	1
0	19611	3787	1
0	19620	3789	1
0	19627	3790	1
0	19643	3793	1
0	19668	3797	3
0	19678	3798	4
0	19686	3799	2
0	19702	3802	1
0	19720	3806	1
0	19740	3811	1
0	19748	3812	1
0	19754	3813	2
0	19763	3815	1
0	19823	3825	1
0	19839	3828	1
0	19891	3839	1
0	19910	3844	1
0	19960	3855	1
0	19972	3857	1
0	19979	3858	1
0	20002	3862	1
0	20050	3875	1
0	20091	3884	1
0	20198	3910	1
0	20210	3913	1
0	20220	3914	2
0	20265	3921	1
0	20281	3923	1
0	20319	3933	1
0	20365	3942	1
0	20378	3943	1
0	20409	3948	1
0	20416	3949	1
0	20446	3959	1
0	20467	3963	1
0	20512	3974	1
0	20523	3977	1
0	20554	3985	1
0	20600	3992	1
0	20610	3993	1
0	20632	3999	1
0	20652	4004	1
0	20663	4007	1
0	20703	4016	1
0	20764	4026	1
0	20857	4044	1
0	20877	4049	1
0	20887	4050	1
0	20896	4051	1
0	20993	4076	1
0	21021	4081	1
0	21028	4082	1
0	21037	4084	1
0	21139	4109	1
0	21171	4117	1
0	21215	4128	1
0	21252	4139	1
0	21289	4148	1
0	21335	4156	1
0	21346	4157	2
0	21413	4168	1
0	21423	4169	2
0	21433	4170	3
0	21444	4171	1
0	21467	4175	1
0	21516	4188	1
0	21527	4191	1
0	21538	4192	1
0	21562	4196	1
0	21588	4204	1
0	21601	4208	1
0	21616	4213	1
0	21649	4218	1
0	21658	4219	2
0	21698	4227	1
0	21751	4234	1
0	21760	4235	2
0	21826	4247	1
0	21854	4251	1
0	21866	4253	1
0	21887	4256	1
0	21917	4260	1
0	21930	4261	1
0	21977	4267	1
0	21996	4269	1
0	22007	4270	2
0	22028	4272	1
0	22065	4279	1
0	22149	4297	1
0	22210	4306	1
0	22235	4310	1
0	22267	4316	1
0	22275	4317	1
0	22281	4318	2
0	22359	4333	1
0	22377	4338	1
0	22389	4340	1
0	22398	4341	2
0	22472	4358	1
0	22515	4367	1
0	22545	4371	1
0	22566	4375	1
0	22600	4382	1
0	22618	4386	1
0	22643	4391	1
0	22694	4398	1
0	22713	4400	1
0	22728	4403	1
0	22734	4404	2
0	22741	4405	1
0	22763	4410	1
0	22783	4412	1
0	22803	4416	1
0	22822	4420	1
0	22829	4421	2
0	22835	4422	2
0	22870	4430	1
0	22912	4437	1
0	22945	4443	1
0	22983	4451	1
0	23006	4459	1
0	23027	4463	1
0	23041	4466	1
0	23050	4467	2
0	23064	4471	2
0	23092	4475	1
0	23117	4478	1
0	23211	4493	1
0	23236	4496	1
0	23287	4510	1
0	23296	4512	1
0	23365	4534	1
0	23408	4545	1
0	23418	4546	2
0	23426	4547	2
0	23439	4551	1
0	23450	4553	1
0	23475	4559	1
0	23499	4566	1
0	23509	4567	2
0	23529	4569	1
0	23551	4572	1
0	23578	4578	1
0	23620	4586	1
0	23630	4587	2
0	23638	4588	2
0	23649	4591	1
0	23683	4598	1
0	23709	4602	1
0	23720	4603	2
0	23767	4609	1
0	23780	4610	2
0	23790	4611	2
0	23800	4612	3
0	23872	4622	1
0	23897	4631	1
0	23931	4639	1
0	23938	4640	1
0	23945	4641	1
0	23972	4646	1
0	23985	4648	1
0	23991	4649	2
0	24031	4655	1
0	24047	4657	1
0	24054	4658	1
0	24065	4661	1
0	24072	4662	1
0	24079	4663	1
0	24086	4664	1
0	24097	4665	1
0	24108	4666	2
0	24149	4673	1
0	24194	4681	1
0	24218	4684	1
0	24230	4686	1
0	24260	4691	1
0	24285	4694	1
0	24329	4703	1
0	24354	4708	1
0	24397	4716	1
0	24407	4717	1
0	24416	4719	1
0	24452	4726	1
0	24462	4727	1
0	24494	4733	1
0	24507	4734	2
0	24517	4735	2
0	24544	4738	1
0	24563	4740	1
0	24573	4741	2
0	24595	4748	1
0	24602	4749	1
0	24614	4751	1
0	24624	4752	2
0	24630	4753	2
0	24655	4759	1
0	24669	4760	2
0	24680	4761	2
0	24689	4762	3
0	24695	4763	3
0	24702	4764	1
0	24725	4768	1
0	24741	4770	1
0	24785	4783	1
0	24794	4785	1
0	24809	4787	1
0	24816	4788	2
0	24822	4789	2
0	24851	4795	1
0	24857	4796	2
0	24863	4797	3
0	24873	4798	1
0	24907	4803	1
0	24926	4806	1
0	24945	4810	2
0	24955	4811	1
0	24967	4812	1
0	25000	4819	1
0	25018	4824	1
0	25036	4828	1
0	25043	4829	1
0	25061	4832	1
0	25077	4836	1
0	25099	4843	1
0	25123	4847	1
0	25147	4850	1
0	25187	4860	1
0	25251	4873	1
0	25274	4877	1
0	25298	4883	1
0	25316	4887	1
0	25356	4893	1
0	25378	4899	1
0	25393	4904	1
0	25452	4916	1
0	25466	4919	1
0	25534	4931	1
0	25550	4935	1
0	25575	4939	1
0	25598	4941	1
0	25612	4942	2
0	25643	4946	1
0	25680	4951	1
0	25724	4957	1
0	25740	4961	3
0	25766	4965	1
0	25803	4973	1
0	25810	4974	2
0	25817	4975	2
0	25823	4976	2
0	25843	4981	1
0	25882	4989	1
0	25918	4995	1
0	25934	4999	1
0	25941	5000	1
1	2310	406	1
1	2310	406	0
1	2311	406	1
1	2317	407	0
1	2326	409	1
1	2326	409	0
1	2327	409	1
1	2333	410	0
1	2365	421	1
1	2365	421	0
1	2385	426	1
1	2385	426	0
1	2393	427	1
1	2400	427	0
1	2409	428	1
1	2411	428	0
1	2429	430	1
1	2429	430	0
1	2430	430	1
1	2445	431	0
1	2468	434	1
1	2468	434	0
1	2504	438	1
1	2504	438	0
1	2563	446	1
1	2563	446	0
1	2586	449	1
1	2595	450	0
1	2612	452	1
1	2612	452	0
1	2652	459	1
1	2652	459	0
1	2695	468	1
1	2695	468	0
1	2718	472	1
1	2718	472	0
1	2719	472	1
1	2728	473	0
1	2739	475	1
1	2739	475	0
1	2740	475	1
1	2747	476	0
1	2760	478	1
1	2760	478	0
1	2775	481	1
1	2775	481	0
1	2784	482	1
1	2785	482	2
1	2787	482	1
1	2795	483	0
1	2824	490	1
1	2824	490	0
1	2873	497	1
1	2873	497	0
1	2900	503	1
1	2900	503	0
1	2987	525	1
1	2987	525	0
1	3012	530	1
1	3012	530	0
1	3040	536	1
1	3040	536	0
1	3062	539	1
1	3062	539	0
1	3153	562	1
1	3153	562	0
1	3188	572	1
1	3188	572	0
1	3199	575	1
1	3199	575	0
1	3208	577	1
1	3208	577	0
1	3241	587	1
1	3241	587	0
1	3242	587	1
1	3250	588	0
1	3255	589	1
1	3256	589	2
1	3260	589	1
1	3270	590	0
1	3287	594	1
1	3287	594	0
1	3298	597	1
1	3298	597	0
1	3314	600	1
1	3314	600	0
1	3319	601	1
1	3323	602	2
1	3329	604	1
1	3334	605	2
1	3336	605	1
1	3342	606	0
1	3351	608	1
1	3351	608	0
1	3381	614	1
1	3381	614	0
1	3400	620	1
1	3400	620	0
1	3430	625	1
1	3430	625	0
1	3449	627	1
1	3449	627	0
1	3532	651	1
1	3532	651	0
1	3540	652	1
1	3542	652	0
1	3549	653	1
1	3551	653	0
1	3586	663	1
1	3586	663	0
1	3694	687	1
1	3694	687	0
1	3728	694	1
1	3728	694	0
1	3746	696	1
1	3746	696	0
1	3818	705	1
1	3818	705	0
1	3841	708	1
1	3841	708	0
1	3854	709	1
1	3856	709	0
1	3865	710	1
1	3867	710	0
1	3963	727	1
1	3963	727	0
1	3989	733	1
1	3989	733	0
1	3990	733	1
1	3998	734	0
1	4032	746	1
1	4032	746	0
1	4046	749	1
1	4046	749	0
1	4149	773	1
1	4149	773	0
1	4180	778	1
1	4180	778	0
1	4204	782	1
1	4204	782	0
1	4212	783	1
1	4214	783	0
1	4244	787	1
1	4244	787	0
1	4275	791	1
1	4275	791	0
1	4371	806	1
1	4371	806	0
1	4416	815	1
1	4416	815	0
1	4425	816	1
1	4427	816	0
1	4462	823	1
1	4462	823	0
1	4485	827	1
1	4485	827	0
1	4490	828	1
1	4492	828	0
1	4505	830	1
1	4505	830	0
1	4558	841	1
1	4558	841	0
1	4559	841	1
1	4567	842	2
1	4569	842	1
1	4577	843	0
1	4596	846	1
1	4596	846	0
1	4609	849	1
1	4609	849	0
1	4621	851	1
1	4621	851	0
1	4658	861	1
1	4658	861	0
1	4667	863	1
1	4667	863	0
1	4761	879	1
1	4761	879	0
1	4842	898	1
1	4842	898	0
1	4923	926	1
1	4923	926	0
1	4928	927	1
1	4930	927	0
1	4957	934	1
1	4957	934	0
1	4975	937	1
1	4975	937	0
1	4990	940	1
1	4990	940	0
1	5012	943	1
1	5012	943	0
1	5021	944	1
1	5026	944	0
1	5035	945	1
1	5037	945	0
1	5054	947	1
1	5054	947	0
1	5136	961	1
1	5136	961	0
1	5155	963	1
1	5155	963	0
1	5261	981	1
1	5261	981	0
1	5279	983	1
1	5279	983	0
1	5302	986	1
1	5311	987	0
1	5387	1000	1
1	5387	1000	0
1	5395	1001	1
1	5397	1001	0
1	5415	1004	1
1	5415	1004	0
1	5457	1015	1
1	5457	1015	0
1	5480	1019	1
1	5480	1019	0
1	5494	1021	1
1	5494	1021	0
1	5495	1021	1
1	5502	1022	0
1	5533	1028	1
1	5533	1028	0
1	5579	1037	1
1	5579	1037	0
1	5589	1038	1
1	5591	1038	0
1	5611	1042	1
1	5611	1042	0
1	5630	1045	1
1	5630	1045	0
1	5669	1056	1
1	5669	1056	0
1	5683	1058	1
1	5683	1058	0
1	5723	1068	1
1	5723	1068	0
1	5732	1070	1
1	5732	1070	0
1	5749	1074	1
1	5749	1074	0
1	5836	1092	1
1	5836	1092	0
1	5841	1093	1
1	5843	1093	0
1	5854	1096	1
1	5854	1096	0
1	5855	1096	1
1	5861	1097	0
1	5872	1100	1
1	5872	1100	0
1	5881	1102	1
1	5881	1102	0
1	5890	1104	1
1	5890	1104	0
1	5891	1104	1
1	5896	1105	2
1	5898	1105	1
1	5904	1106	0
1	5934	1112	1
1	5934	1112	0
1	5941	1113	1
1	5943	1113	0
1	5948	1114	1
1	5952	1114	0
1	5970	1117	1
1	5974	1118	0
1	5975	1118	1
1	5982	1119	0
1	5995	1121	1
1	5995	1121	0
1	6038	1135	1
1	6038	1135	0
1	6039	1135	1
1	6040	1135	2
1	6050	1136	1
1	6061	1137	0
1	6112	1147	1
1	6112	1147	0
1	6117	1148	1
1	6119	1148	0
1	6137	1152	1
1	6137	1152	0
1	6180	1162	1
1	6180	1162	0
1	6181	1162	1
1	6192	1163	0
1	6199	1164	1
1	6202	1164	0
1	6209	1165	1
1	6213	1165	0
1	6240	1171	1
1	6240	1171	0
1	6245	1172	1
1	6247	1172	0
1	6256	1174	1
1	6256	1174	0
1	6257	1174	1
1	6263	1175	0
1	6279	1178	1
1	6279	1178	0
1	6295	1181	1
1	6295	1181	0
1	6296	1181	1
1	6302	1182	0
1	6313	1185	1
1	6313	1185	0
1	6333	1190	1
1	6333	1190	0
1	6360	1196	1
1	6360	1196	0
1	6365	1197	1
1	6367	1197	0
1	6387	1202	1
1	6387	1202	0
1	6388	1202	1
1	6397	1203	0
1	6404	1204	1
1	6406	1204	0
1	6421	1209	1
1	6421	1209	0
1	6434	1213	1
1	6434	1213	0
1	6439	1214	1
1	6442	1214	0
1	6460	1218	1
1	6460	1218	0
1	6471	1221	1
1	6471	1221	0
1	6492	1225	1
1	6492	1225	0
1	6575	1236	1
1	6575	1236	0
1	6600	1243	1
1	6600	1243	0
1	6612	1245	1
1	6612	1245	0
1	6656	1252	1
1	6656	1252	0
1	6723	1263	1
1	6723	1263	0
1	6761	1269	1
1	6761	1269	0
1	6770	1270	1
1	6776	1270	0
1	6809	1275	1
1	6809	1275	0
1	6827	1279	1
1	6827	1279	0
1	6902	1299	1
1	6902	1299	0
1	6937	1304	1
1	6937	1304	0
1	6946	1305	1
1	6948	1305	0
1	7006	1316	1
1	7006	1316	0
1	7017	1319	1
1	7017	1319	0
1	7046	1326	1
1	7046	1326	0
1	7133	1342	1
1	7133	1342	0
1	7138	1343	1
1	7140	1343	0
1	7149	1345	1
1	7149	1345	0
1	7150	1345	1
1	7151	1345	2
1	7152	1345	3
1	7162	1346	2
1	7171	1347	3
1	7175	1347	2
1	7184	1348	3
1	7186	1348	2
1	7196	1349	1
1	7205	1350	0
1	7252	1359	1
1	7252	1359	0
1	7257	1360	1
1	7259	1360	0
1	7268	1362	1
1	7268	1362	0
1	7281	1366	1
1	7281	1366	0
1	7282	1366	1
1	7293	1368	2
1	7301	1370	1
1	7309	1371	0
1	7361	1383	1
1	7361	1383	0
1	7371	1384	1
1	7372	1384	2
1	7374	1384	1
1	7385	1385	0
1	7394	1386	1
1	7396	1386	0
1	7466	1398	1
1	7466	1398	0
1	7471	1399	1
1	7473	1399	0
1	7507	1406	1
1	7507	1406	0
1	7512	1407	1
1	7514	1407	0
1	7531	1413	1
1	7531	1413	0
1	7568	1419	1
1	7568	1419	0
1	7579	1422	1
1	7579	1422	0
1	7611	1428	1
1	7611	1428	0
1	7622	1431	1
1	7622	1431	0
1	7701	1448	1
1	7701	1448	0
1	7713	1450	1
1	7713	1450	0
1	7760	1456	1
1	7760	1456	0
1	7822	1467	1
1	7822	1467	0
1	7829	1468	1
1	7831	1468	0
1	7865	1475	1
1	7865	1475	0
1	7866	1475	1
1	7871	1476	2
1	7873	1476	1
1	7879	1477	0
1	7916	1484	1
1	7916	1484	0
1	7923	1485	1
1	7925	1485	0
1	7958	1494	1
1	7958	1494	0
1	7978	1499	1
1	7978	1499	0
1	7979	1499	1
1	7986	1500	0
1	8015	1506	1
1	8015	1506	0
1	8037	1509	1
1	8037	1509	0
1	8083	1516	1
1	8083	1516	0
1	8109	1524	1
1	8109	1524	0
1	8114	1525	1
1	8115	1525	2
1	8118	1525	1
1	8128	1526	0
1	8137	1528	1
1	8137	1528	0
1	8142	1529	1
1	8144	1529	0
1	8163	1532	1
1	8163	1532	0
1	8179	1534	1
1	8179	1534	0
1	8222	1543	1
1	8222	1543	0
1	8223	1543	1
1	8230	1544	0
1	8257	1553	1
1	8257	1553	0
1	8273	1556	1
1	8273	1556	0
1	8309	1569	1
1	8309	1569	0
1	8320	1572	1
1	8320	1572	0
1	8372	1583	1
1	8372	1583	0
1	8381	1585	1
1	8381	1585	0
1	8420	1592	1
1	8420	1592	0
1	8431	1595	1
1	8431	1595	0
1	8432	1595	1
1	8444	1596	0
1	8492	1604	1
1	8492	1604	0
1	8507	1608	1
1	8507	1608	0
1	8530	1612	1
1	8530	1612	0
1	8601	1625	1
1	8601	1625	0
1	8634	1629	1
1	8634	1629	0
1	8666	1633	1
1	8666	1633	0
1	8714	1639	1
1	8714	1639	0
1	8749	1644	1
1	8749	1644	0
1	8750	1644	1
1	8756	1645	0
1	8761	1646	1
1	8763	1646	0
1	8772	1648	1
1	8772	1648	0
1	8795	1654	1
1	8795	1654	0
1	8825	1659	1
1	8825	1659	0
1	8888	1683	1
1	8888	1683	0
1	8907	1685	1
1	8907	1685	0
1	8970	1694	1
1	8970	1694	0
1	8971	1694	1
1	8980	1695	0
1	8993	1698	1
1	8993	1698	0
1	9004	1701	1
1	9004	1701	0
1	9012	1702	1
1	9015	1702	0
1	9058	1709	1
1	9058	1709	0
1	9071	1712	1
1	9071	1712	0
1	9076	1713	1
1	9077	1713	2
1	9079	1713	1
1	9086	1714	0
1	9101	1717	1
1	9101	1717	0
1	9121	1723	1
1	9121	1723	0
1	9240	1744	1
1	9240	1744	0
1	9277	1753	1
1	9277	1753	0
1	9301	1757	1
1	9301	1757	0
1	9306	1758	1
1	9308	1758	0
1	9342	1770	1
1	9342	1770	0
1	9355	1774	1
1	9355	1774	0
1	9369	1776	1
1	9369	1776	0
1	9394	1779	1
1	9394	1779	0
1	9395	1779	1
1	9407	1780	0
1	9430	1784	1
1	9430	1784	0
1	9444	1786	1
1	9444	1786	0
1	9474	1794	1
1	9474	1794	0
1	9538	1808	1
1	9538	1808	0
1	9563	1813	1
1	9563	1813	0
1	9564	1813	1
1	9572	1814	0
1	9607	1823	1
1	9607	1823	0
1	9614	1824	1
1	9616	1824	0
1	9646	1829	1
1	9646	1829	0
1	9686	1839	1
1	9686	1839	0
1	9721	1849	1
1	9721	1849	0
1	9736	1854	1
1	9736	1854	0
1	9749	1858	1
1	9749	1858	0
1	9789	1868	1
1	9789	1868	0
1	9818	1875	1
1	9818	1875	0
1	9832	1878	1
1	9832	1878	0
1	9846	1880	1
1	9846	1880	0
1	9861	1884	1
1	9861	1884	0
1	9886	1889	1
1	9886	1889	0
1	9961	1905	1
1	9961	1905	0
1	9974	1908	1
1	9974	1908	0
1	10009	1913	1
1	10009	1913	0
1	10026	1915	1
1	10026	1915	0
1	10037	1917	1
1	10037	1917	0
1	10095	1927	1
1	10095	1927	0
1	10102	1928	1
1	10104	1928	0
1	10109	1929	1
1	10111	1929	0
1	10139	1936	1
1	10139	1936	0
1	10199	1954	1
1	10199	1954	0
1	10206	1955	1
1	10208	1955	0
1	10233	1961	1
1	10233	1961	0
1	10246	1964	1
1	10246	1964	0
1	10273	1970	1
1	10273	1970	0
1	10285	1972	1
1	10285	1972	0
1	10334	1983	1
1	10334	1983	0
1	10339	1984	1
1	10341	1984	0
1	10511	2026	1
1	10511	2026	0
1	10522	2029	1
1	10522	2029	0
1	10554	2033	1
1	10554	2033	0
1	10584	2040	1
1	10584	2040	0
1	10593	2042	1
1	10593	2042	0
1	10617	2049	1
1	10617	2049	0
1	10618	2049	1
1	10628	2050	0
1	10667	2059	1
1	10667	2059	0
1	10724	2075	1
1	10724	2075	0
1	10733	2077	1
1	10733	2077	0
1	10751	2081	1
1	10751	2081	0
1	10752	2081	1
1	10758	2082	0
1	10776	2087	1
1	10776	2087	0
1	10805	2093	1
1	10805	2093	0
1	10813	2094	1
1	10815	2094	0
1	10822	2095	1
1	10825	2095	0
1	10832	2096	1
1	10837	2096	0
1	10921	2111	1
1	10921	2111	0
1	10934	2115	1
1	10934	2115	0
1	10963	2122	1
1	10963	2122	0
1	10988	2127	1
1	10988	2127	0
1	10993	2128	1
1	10996	2128	0
1	11009	2130	1
1	11009	2130	0
1	11014	2131	1
1	11016	2131	0
1	11021	2132	1
1	11023	2132	0
1	11081	2147	1
1	11081	2147	0
1	11091	2148	1
1	11094	2148	0
1	11114	2151	1
1	11114	2151	0
1	11115	2151	1
1	11123	2152	0
1	11134	2155	1
1	11134	2155	0
1	11152	2158	1
1	11161	2159	0
1	11181	2163	1
1	11181	2163	0
1	11233	2174	1
1	11233	2174	0
1	11242	2176	1
1	11242	2176	0
1	11287	2184	1
1	11287	2184	0
1	11321	2193	1
1	11321	2193	0
1	11405	2210	1
1	11405	2210	0
1	11410	2211	1
1	11411	2211	2
1	11417	2211	1
1	11428	2212	0
1	11472	2221	1
1	11472	2221	0
1	11483	2224	1
1	11483	2224	0
1	11492	2226	1
1	11492	2226	0
1	11528	2234	1
1	11528	2234	0
1	11549	2242	1
1	11549	2242	0
1	11554	2243	1
1	11556	2243	0
1	11572	2246	1
1	11572	2246	0
1	11650	2260	1
1	11650	2260	0
1	11701	2268	1
1	11701	2268	0
1	11706	2269	1
1	11708	2269	0
1	11713	2270	1
1	11715	2270	0
1	11736	2274	1
1	11736	2274	0
1	11793	2281	1
1	11793	2281	0
1	11858	2294	1
1	11858	2294	0
1	11899	2302	1
1	11899	2302	0
1	11947	2312	1
1	11947	2312	0
1	12047	2341	1
1	12047	2341	0
1	12105	2351	1
1	12105	2351	0
1	12213	2377	1
1	12213	2377	0
1	12271	2388	1
1	12271	2388	0
1	12298	2397	1
1	12298	2397	0
1	12315	2399	1
1	12316	2399	2
1	12324	2401	1
1	12329	2402	2
1	12333	2402	1
1	12343	2403	0
1	12350	2404	1
1	12354	2404	0
1	12388	2412	1
1	12388	2412	0
1	12395	2413	1
1	12397	2413	0
1	12428	2418	1
1	12428	2418	0
1	12429	2418	1
1	12440	2419	0
1	12457	2421	1
1	12457	2421	0
1	12489	2427	1
1	12489	2427	0
1	12524	2431	1
1	12524	2431	0
1	12534	2432	1
1	12536	2432	0
1	12599	2445	1
1	12599	2445	0
1	12620	2450	1
1	12620	2450	0
1	12644	2454	1
1	12644	2454	0
1	12677	2463	1
1	12677	2463	0
1	12706	2470	1
1	12706	2470	0
1	12715	2472	1
1	12715	2472	0
1	12737	2478	1
1	12737	2478	0
1	12738	2478	1
1	12745	2479	0
1	12758	2481	1
1	12758	2481	0
1	12767	2483	1
1	12767	2483	0
1	12775	2484	1
1	12778	2484	0
1	12787	2485	1
1	12790	2485	0
1	12819	2490	1
1	12819	2490	0
1	12842	2493	1
1	12842	2493	0
1	12856	2495	1
1	12856	2495	0
1	12865	2497	1
1	12865	2497	0
1	12873	2498	1
1	12875	2498	0
1	12889	2500	1
1	12889	2500	0
1	12907	2505	1
1	12907	2505	0
1	12944	2516	1
1	12944	2516	0
1	12960	2519	1
1	12960	2519	0
1	12965	2520	1
1	12968	2520	0
1	13011	2527	1
1	13011	2527	0
1	13043	2533	1
1	13043	2533	0
1	13067	2540	1
1	13067	2540	0
1	13125	2555	1
1	13125	2555	0
1	13126	2555	1
1	13138	2556	0
1	13160	2559	1
1	13160	2559	0
1	13161	2559	1
1	13167	2560	0
1	13199	2567	1
1	13199	2567	0
1	13200	2567	1
1	13208	2568	0
1	13226	2572	1
1	13226	2572	0
1	13234	2573	1
1	13236	2573	0
1	13243	2574	1
1	13247	2574	0
1	13266	2577	1
1	13266	2577	0
1	13304	2586	1
1	13304	2586	0
1	13313	2588	1
1	13313	2588	0
1	13385	2599	1
1	13385	2599	0
1	13390	2600	1
1	13392	2600	0
1	13397	2601	1
1	13400	2601	0
1	13426	2607	1
1	13426	2607	0
1	13461	2615	1
1	13461	2615	0
1	13555	2633	1
1	13555	2633	0
1	13591	2638	1
1	13591	2638	0
1	13643	2648	1
1	13643	2648	0
1	13669	2651	1
1	13669	2651	0
1	13694	2654	1
1	13694	2654	0
1	13695	2654	1
1	13708	2655	0
1	13724	2657	1
1	13739	2659	0
1	13757	2662	1
1	13757	2662	0
1	13783	2666	1
1	13783	2666	0
1	13831	2674	1
1	13831	2674	0
1	13832	2674	1
1	13843	2675	0
1	13880	2681	1
1	13880	2681	0
1	13889	2683	1
1	13889	2683	0
1	13909	2685	1
1	13909	2685	0
1	13972	2697	1
1	13972	2697	0
1	13981	2699	1
1	13981	2699	0
1	13986	2700	1
1	13989	2700	0
1	14024	2708	1
1	14024	2708	0
1	14040	2711	1
1	14040	2711	0
1	14070	2721	1
1	14070	2721	0
1	14099	2729	1
1	14099	2729	0
1	14110	2731	1
1	14110	2731	0
1	14133	2736	1
1	14133	2736	0
1	14134	2736	1
1	14141	2737	2
1	14143	2737	1
1	14150	2738	0
1	14188	2748	1
1	14188	2748	0
1	14226	2752	1
1	14226	2752	0
1	14227	2752	1
1	14237	2753	0
1	14254	2755	1
1	14254	2755	0
1	14255	2755	1
1	14266	2756	0
1	14292	2759	1
1	14292	2759	0
1	14329	2764	1
1	14329	2764	0
1	14336	2765	1
1	14338	2765	0
1	14375	2772	1
1	14375	2772	0
1	14402	2778	1
1	14402	2778	0
1	14457	2787	1
1	14457	2787	0
1	14458	2787	1
1	14470	2789	2
1	14471	2789	3
1	14486	2791	2
1	14487	2791	3
1	14497	2792	4
1	14499	2792	3
1	14506	2793	4
1	14509	2793	3
1	14519	2794	2
1	14526	2795	1
1	14536	2796	0
1	14563	2803	1
1	14563	2803	0
1	14581	2806	1
1	14581	2806	0
1	14592	2809	1
1	14592	2809	0
1	14620	2818	1
1	14620	2818	0
1	14621	2818	1
1	14631	2819	2
1	14633	2819	1
1	14643	2820	0
1	14658	2822	1
1	14658	2822	0
1	14688	2832	1
1	14688	2832	0
1	14745	2844	1
1	14745	2844	0
1	14764	2850	1
1	14764	2850	0
1	14773	2852	1
1	14773	2852	0
1	14843	2872	1
1	14843	2872	0
1	14861	2876	1
1	14861	2876	0
1	14877	2880	1
1	14877	2880	0
1	14878	2880	1
1	14885	2881	2
1	14887	2881	1
1	14893	2882	0
1	14898	2883	1
1	14900	2883	0
1	14991	2903	1
1	14991	2903	0
1	15014	2906	1
1	15014	2906	0
1	15030	2908	1
1	15030	2908	0
1	15035	2909	1
1	15037	2909	0
1	15065	2914	1
1	15065	2914	0
1	15104	2920	1
1	15104	2920	0
1	15125	2923	1
1	15125	2923	0
1	15149	2928	1
1	15149	2928	0
1	15177	2932	1
1	15177	2932	0
1	15210	2940	1
1	15210	2940	0
1	15218	2941	1
1	15220	2941	0
1	15241	2944	1
1	15241	2944	0
1	15335	2961	1
1	15335	2961	0
1	15350	2963	1
1	15350	2963	0
1	15374	2967	1
1	15374	2967	0
1	15411	2973	1
1	15411	2973	0
1	15412	2973	1
1	15418	2974	0
1	15427	2976	1
1	15427	2976	0
1	15432	2977	1
1	15434	2977	0
1	15459	2982	1
1	15459	2982	0
1	15464	2983	1
1	15465	2983	2
1	15467	2983	1
1	15472	2984	2
1	15474	2984	1
1	15480	2985	0
1	15489	2987	1
1	15489	2987	0
1	15502	2989	1
1	15502	2989	0
1	15511	2990	1
1	15512	2990	2
1	15515	2990	1
1	15526	2991	0
1	15559	2997	1
1	15559	2997	0
1	15570	3000	1
1	15570	3000	0
1	15575	3001	1
1	15577	3001	0
1	15582	3002	1
1	15584	3002	0
1	15606	3008	1