version 3
run Experimentos-347-20260514-09:21:12-5160
attr configname Experimentos
attr datetime 20260514-09:21:12
attr datetimef 20260514-092112
attr experiment Experimentos
attr inifile TwoQueues.ini
attr iterationvars "$p=0.6, $q=0.3, $Y=20, $m=3"
attr iterationvarsd p=0.6/q=0.3/Y=20/m=3
attr iterationvarsf p=0.6,q=0.3,Y=20,m=3-
attr measurement "$p=0.6, $q=0.3, $Y=20, $m=3"
attr network TwoQueues
attr processid 5160
attr repetition 7
attr replication #7
attr resultdir results
attr runnumber 347
attr seedset 347
itervar Y 20
itervar m 3
itervar p 0.6
itervar q 0.3
config description "Barrido completo de parámetros Proyecto 12"
config **.source1.p 0.6
config **.source1.q 0.2
config **.source2.p 0.6
config **.source2.q 0.3
config **.serverWithMaintenance.Y 20
config **.serverWithMaintenance.m 3
config network TwoQueues
config cpu-time-limit 5000s
config sim-time-limit 5000s
config warmup-period 400s
config repeat 20
config output-scalar-file results/Experimentos-p=0.6,q=0.3,Y=20,m=3--#7.sca
config output-vector-file results/Experimentos-p=0.6,q=0.3,Y=20,m=3--#7.vec
config **.vector-recording true

vector 0 TwoQueues.serverWithMaintenance residenceTime2:vector ETV
attr recordingmode vector
attr source delay2
attr title "Residence Time Class 2"
vector 1 TwoQueues.queue2 queueLengthStats:vector ETV
attr recordingmode vector
attr source qlen
attr title "Average Queue Length"
vector 2 TwoQueues.queue1 queueLengthStats:vector ETV
attr recordingmode vector
attr source qlen
attr title "Average Queue Length"
vector 3 TwoQueues.server residenceTime1:vector ETV
attr recordingmode vector
attr source delay1
attr title "Residence Time Class 1"
vector 4 TwoQueues.server throughputStats1:vector ETV
attr recordingmode vector
attr source throughput1
attr title "Throughput Class 1"
0	2770	402	3
0	2779	403	2
0	2799	405	1
0	2809	406	2
0	2928	422	1
0	3043	439	1
0	3062	442	1
0	3142	455	1
0	3152	456	2
0	3164	458	1
0	3175	460	1
0	3204	464	1
0	3246	469	1
0	3265	471	1
0	3276	472	1
0	3308	476	1
0	3318	477	2
0	3328	478	2
0	3342	479	2
0	3355	480	2
0	3388	484	5
0	3399	485	6
0	3412	486	7
0	3423	487	2
0	3433	488	2
0	3445	489	1
0	3456	490	2
0	3466	491	1
0	3486	494	1
0	3505	496	1
0	3517	497	1
0	3550	501	1
0	3612	509	1
0	3624	510	2
0	3635	511	3
0	3644	512	4
0	3653	513	3
0	3662	514	1
0	3674	516	1
0	3692	518	1
0	3722	522	3
0	3732	523	3
0	3741	524	2
0	3787	532	1
0	3844	544	1
0	3853	545	2
0	3906	552	1
0	3952	563	1
0	3966	564	2
0	3977	565	2
0	3988	566	2
0	4029	571	1
0	4040	572	2
0	4058	574	1
0	4081	577	1
0	4091	578	1
0	4102	579	1
0	4114	580	2
0	4122	581	2
0	4146	584	1
0	4181	591	1
0	4190	592	2
0	4226	601	1
0	4242	603	1
0	4254	604	1
0	4297	613	1
0	4321	618	1
0	4348	622	1
0	4370	624	1
0	4381	625	1
0	4409	628	1
0	4432	631	1
0	4449	633	1
0	4464	635	1
0	4480	637	1
0	4490	638	1
0	4499	639	1
0	4553	647	1
0	4569	649	1
0	4601	653	1
0	4636	657	3
0	4647	658	1
0	4669	660	1
0	4699	664	1
0	4716	666	1
0	4745	669	1
0	4755	670	2
0	4764	671	3
0	4771	672	1
0	4780	674	1
0	4796	676	1
0	4806	677	1
0	4838	683	1
0	4863	688	1
0	4885	692	1
0	4932	700	1
0	4950	703	1
0	4962	705	1
0	4975	708	1
0	5011	716	1
0	5040	720	1
0	5056	721	1
0	5067	722	2
0	5077	723	2
0	5123	731	1
0	5132	732	2
0	5148	735	1
0	5166	738	1
0	5195	745	1
0	5205	746	1
0	5224	749	1
0	5252	754	1
0	5261	755	2
0	5275	756	1
0	5285	757	2
0	5294	758	1
0	5311	764	1
0	5321	765	1
0	5350	771	1
0	5357	772	1
0	5388	776	2
0	5405	778	1
0	5439	784	1
0	5458	787	1
0	5469	788	1
0	5491	791	1
0	5518	797	1
0	5597	810	1
0	5617	814	1
0	5652	820	1
0	5661	821	2
0	5689	826	1
0	5723	832	1
0	5734	834	1
0	5748	836	1
0	5789	841	1
0	5835	847	1
0	5879	853	1
0	5903	856	1
0	5913	857	1
0	5942	862	1
0	5979	866	1
0	5990	867	1
0	6001	868	1
0	6025	871	1
0	6059	877	1
0	6070	878	1
0	6082	879	2
0	6097	881	1
0	6110	883	1
0	6187	894	1
0	6222	901	1
0	6229	902	1
0	6241	904	1
0	6282	909	1
0	6292	910	2
0	6307	912	1
0	6316	913	2
0	6323	914	1
0	6348	917	1
0	6376	921	5
0	6385	922	4
0	6399	923	4
0	6410	924	4
0	6422	925	1
0	6432	926	2
0	6443	927	1
0	6497	935	1
0	6507	936	2
0	6519	937	1
0	6532	938	2
0	6542	939	2
0	6551	940	3
0	6575	945	1
0	6586	946	1
0	6598	947	1
0	6640	952	1
0	6710	962	1
0	6734	965	1
0	6746	966	2
0	6777	970	3
0	6784	971	1
0	6791	972	1
0	6823	977	1
0	6844	979	1
0	6855	980	1
0	6870	981	1
0	6943	992	1
0	6964	995	1
0	6976	997	1
0	6991	999	1
0	7027	1005	1
0	7045	1008	1
0	7056	1009	2
0	7070	1010	2
0	7087	1012	1
0	7125	1017	1
0	7142	1019	1
0	7159	1021	1
0	7166	1022	1
0	7202	1027	1
0	7220	1029	1
0	7271	1039	1
0	7298	1045	1
0	7307	1047	1
0	7378	1057	1
0	7388	1058	2
0	7409	1060	1
0	7422	1061	1
0	7439	1063	1
0	7472	1067	1
0	7483	1068	1
0	7505	1071	1
0	7515	1072	1
0	7547	1077	1
0	7557	1078	1
0	7568	1080	1
0	7583	1084	1
0	7593	1085	1
0	7645	1093	1
0	7675	1097	5
0	7689	1099	1
0	7704	1100	1
0	7723	1102	1
0	7734	1103	2
0	7766	1107	1
0	7867	1120	1
0	7909	1125	1
0	7958	1131	1
0	7975	1133	1
0	8012	1138	1
0	8057	1144	1
0	8086	1147	1
0	8115	1151	1
0	8127	1152	1
0	8137	1153	2
0	8148	1154	1
0	8161	1155	1
0	8172	1156	1
0	8253	1167	1
0	8282	1171	5
0	8289	1172	1
0	8306	1177	1
0	8316	1178	1
0	8365	1186	1
0	8374	1187	2
0	8406	1193	1
0	8417	1194	1
0	8450	1198	1
0	8493	1204	1
0	8512	1207	1
0	8558	1213	1
0	8568	1214	1
0	8599	1219	1
0	8610	1220	1
0	8669	1228	1
0	8687	1230	1
0	8707	1232	1
0	8718	1233	2
0	8729	1234	2
0	8761	1238	2
0	8772	1239	2
0	8782	1240	2
0	8788	1241	2
0	8833	1253	1
0	8842	1254	2
0	8851	1255	1
0	8862	1258	1
0	8915	1266	1
0	8957	1272	1
0	8976	1276	1
0	9032	1288	1
0	9049	1290	1
0	9065	1292	1
0	9090	1297	1
0	9146	1304	1
0	9156	1305	2
0	9182	1308	1
0	9213	1312	1
0	9246	1320	1
0	9307	1330	1
0	9405	1347	1
0	9415	1348	2
0	9428	1350	1
0	9434	1351	2
0	9466	1356	1
0	9487	1359	1
0	9529	1366	1
0	9576	1377	1
0	9587	1378	1
0	9595	1379	2
0	9625	1384	1
0	9648	1387	1
0	9718	1399	1
0	9762	1407	1
0	9768	1408	2
0	9799	1414	1
0	9810	1415	1
0	9867	1422	1
0	9878	1423	1
0	9913	1427	4
0	9924	1428	3
0	9934	1429	3
0	9940	1430	4
0	9949	1431	4
0	9960	1432	4
0	9969	1433	1
0	9992	1436	1
0	10004	1438	1
0	10020	1441	1
0	10027	1442	1
0	10039	1443	1
0	10052	1444	2
0	10062	1445	2
0	10117	1454	1
0	10126	1455	2
0	10151	1462	1
0	10168	1464	1
0	10227	1472	1
0	10235	1473	1
0	10259	1477	5
0	10266	1478	4
0	10274	1479	2
0	10281	1480	2
0	10291	1481	3
0	10299	1482	3
0	10308	1483	3
0	10321	1484	1
0	10342	1487	1
0	10353	1488	1
0	10366	1489	1
0	10406	1496	1
0	10439	1502	1
0	10451	1503	2
0	10462	1504	2
0	10473	1505	3
0	10500	1508	1
0	10511	1509	1
0	10529	1511	1
0	10543	1512	1
0	10579	1516	5
0	10589	1517	5
0	10602	1518	4
0	10673	1528	1
0	10695	1534	1
0	10745	1545	1
0	10806	1554	1
0	10837	1560	1
0	10857	1562	1
0	10873	1564	1
0	10888	1569	1
0	10906	1573	1
0	10917	1576	1
0	10926	1578	1
0	10965	1585	1
0	10974	1587	1
0	10999	1592	1
0	11018	1595	1
0	11031	1596	2
0	11048	1598	1
0	11070	1602	2
0	11082	1603	1
0	11112	1606	1
0	11142	1610	1
0	11154	1611	1
0	11164	1612	2
0	11203	1619	1
0	11216	1620	2
0	11264	1629	1
0	11310	1636	1
0	11345	1640	1
0	11406	1650	1
0	11426	1654	1
0	11439	1655	1
0	11446	1656	2
0	11456	1657	3
0	11467	1658	4
0	11475	1659	4
0	11484	1660	3
0	11511	1668	1
0	11559	1675	1
0	11570	1676	1
0	11576	1677	2
0	11583	1678	1
0	11590	1679	1
0	11597	1680	1
0	11643	1688	1
0	11650	1689	1
0	11696	1701	1
0	11716	1703	1
0	11732	1705	1
0	11756	1712	1
0	11781	1716	1
0	11791	1717	1
0	11800	1719	1
0	11820	1722	1
0	11838	1724	1
0	11850	1725	1
0	11860	1726	2
0	11866	1727	2
0	11880	1731	1
0	11917	1738	1
0	11928	1739	2
0	11942	1742	1
0	11969	1749	1
0	12006	1754	1
0	12013	1755	1
0	12026	1757	1
0	12035	1758	2
0	12043	1759	3
0	12053	1760	2
0	12064	1761	3
0	12072	1762	2
0	12083	1763	1
0	12091	1764	2
0	12112	1768	1
0	12121	1769	2
0	12135	1772	1
0	12153	1774	1
0	12167	1776	1
0	12184	1780	1
0	12195	1782	1
0	12242	1790	1
0	12259	1792	1
0	12265	1793	2
0	12288	1796	1
0	12299	1797	1
0	12305	1798	2
0	12312	1799	1
0	12349	1804	1
0	12361	1805	1
0	12377	1809	1
0	12413	1816	1
0	12461	1822	1
0	12479	1824	1
0	12516	1831	1
0	12571	1840	1
0	12583	1842	1
0	12593	1844	1
0	12605	1845	2
0	12640	1849	5
0	12653	1850	5
0	12664	1851	3
0	12690	1854	1
0	12750	1862	1
0	12768	1864	1
0	12787	1866	1
0	12837	1872	1
0	12849	1873	2
0	12865	1874	3
0	12944	1885	1
0	12968	1888	1
0	12979	1889	1
0	13006	1892	1
0	13035	1896	1
0	13069	1902	1
0	13083	1905	1
0	13097	1906	1
0	13117	1908	1
0	13151	1913	1
0	13174	1918	1
0	13209	1923	1
0	13238	1928	1
0	13244	1929	2
0	13254	1930	1
0	13306	1937	1
0	13312	1938	2
0	13333	1946	1
0	13348	1948	1
0	13358	1949	2
0	13369	1950	2
0	13381	1951	1
0	13400	1953	1
0	13412	1954	2
0	13485	1963	1
0	13508	1965	1
0	13541	1969	1
0	13552	1970	1
0	13578	1973	1
0	13589	1974	1
0	13621	1978	1
0	13721	1992	1
0	13745	1995	1
0	13766	1997	1
0	13801	2002	1
0	13820	2009	1
0	13834	2011	1
0	13846	2013	1
0	13858	2014	1
0	13890	2018	1
0	13902	2019	1
0	13915	2020	1
0	13931	2022	1
0	13948	2025	1
0	13954	2026	2
0	13989	2031	1
0	14000	2032	1
0	14011	2033	2
0	14034	2036	1
0	14041	2037	1
0	14101	2048	1
0	14115	2050	1
0	14145	2053	1
0	14163	2055	1
0	14174	2056	2
0	14198	2059	1
0	14236	2065	1
0	14245	2066	2
0	14262	2068	1
0	14276	2069	1
0	14286	2070	2
0	14299	2071	1
0	14363	2085	1
0	14376	2089	1
0	14401	2093	1
0	14430	2096	1
0	14448	2098	1
0	14465	2100	1
0	14477	2101	1
0	14489	2102	1
0	14528	2112	1
0	14539	2113	1
0	14558	2117	1
0	14565	2118	1
0	14575	2119	1
0	14593	2122	1
0	14608	2123	1
0	14619	2124	1
0	14630	2125	1
0	14666	2130	1
0	14699	2137	1
0	14706	2138	2
0	14712	2139	2
0	14742	2143	1
0	14752	2144	1
0	14777	2150	1
0	14800	2153	1
0	14828	2161	1
0	14857	2164	1
0	14916	2172	1
0	14952	2176	4
0	14963	2177	2
0	14973	2178	3
0	14990	2180	1
0	15001	2181	1
0	15026	2184	1
0	15042	2186	1
0	15051	2188	1
0	15065	2190	1
0	15127	2205	1
0	15139	2206	1
0	15165	2208	1
0	15180	2209	2
0	15190	2210	3
0	15200	2211	3
0	15211	2212	1
0	15223	2213	1
0	15249	2216	1
0	15261	2217	2
0	15271	2218	2
0	15297	2222	6
0	15306	2223	3
0	15314	2224	3
0	15325	2227	1
0	15340	2232	1
0	15357	2234	1
0	15372	2235	2
0	15393	2237	1
0	15405	2238	1
0	15417	2239	1
0	15428	2240	1
0	15458	2243	1
0	15468	2244	2
0	15486	2246	1
0	15509	2249	1
0	15543	2253	1
0	15560	2255	1
0	15611	2263	1
0	15656	2269	1
0	15674	2274	1
0	15700	2278	3
0	15723	2280	1
0	15733	2281	2
0	15751	2283	1
0	15760	2284	2
0	15774	2285	1
0	15835	2293	1
0	15854	2295	1
0	15897	2300	1
0	15914	2302	1
0	15949	2306	1
0	15961	2307	2
0	16004	2312	1
0	16034	2316	1
0	16073	2321	1
0	16127	2328	1
0	16152	2331	1
0	16163	2332	1
0	16203	2337	1
0	16220	2339	1
0	16278	2346	1
0	16289	2347	2
0	16301	2348	3
0	16312	2349	3
0	16341	2353	1
0	16393	2360	1
0	16403	2361	2
0	16414	2362	1
0	16466	2373	1
0	16476	2374	1
0	16509	2378	1
0	16519	2379	2
0	16530	2380	1
0	16541	2381	1
0	16547	2382	2
0	16566	2385	1
0	16581	2386	2
0	16593	2387	2
0	16604	2388	1
0	16644	2393	1
0	16673	2397	5
0	16689	2401	1
0	16700	2402	1
0	16741	2407	1
0	16753	2408	1
0	16772	2411	1
0	16778	2412	2
0	16785	2413	1
0	16797	2415	1
0	16820	2419	1
0	16829	2420	2
0	16840	2422	1
0	16854	2423	1
0	16866	2424	1
0	16881	2425	2
0	16913	2429	1
0	16956	2435	1
0	16974	2438	1
0	17000	2441	1
0	17013	2442	1
0	17053	2448	1
0	17072	2453	1
0	17078	2454	2
0	17097	2460	1
0	17162	2471	1
0	17225	2479	1
0	17294	2491	1
0	17322	2495	1
0	17348	2500	1
0	17364	2502	1
0	17375	2503	1
0	17386	2504	1
0	17412	2507	1
0	17423	2508	1
0	17468	2513	1
0	17486	2515	1
0	17498	2516	1
0	17509	2517	2
0	17523	2518	2
0	17577	2526	1
0	17609	2530	4
0	17619	2531	3
0	17655	2536	1
0	17689	2539	1
0	17699	2540	2
0	17725	2543	1
0	17785	2552	1
0	17802	2554	1
0	17814	2555	1
0	17826	2556	2
0	17844	2559	1
0	17871	2565	1
0	17881	2566	2
0	17892	2567	1
0	17915	2569	1
0	17954	2574	1
0	17964	2575	2
0	17976	2576	1
0	17988	2577	1
0	18033	2583	1
0	18056	2587	5
0	18066	2588	5
0	18077	2589	6
0	18087	2590	6
0	18097	2591	4
0	18106	2592	1
0	18117	2594	1
0	18127	2595	1
0	18140	2599	1
0	18188	2607	1
0	18211	2612	1
0	18222	2613	1
0	18230	2614	2
0	18241	2616	1
0	18269	2619	1
0	18280	2620	1
0	18291	2621	1
0	18301	2622	1
0	18316	2625	1
0	18327	2626	2
0	18350	2630	3
0	18356	2631	3
0	18367	2632	4
0	18375	2633	2
0	18384	2634	3
0	18417	2638	1
0	18440	2641	1
0	18451	2644	1
0	18489	2649	1
0	18498	2650	2
0	18546	2659	1
0	18564	2661	1
0	18617	2668	1
0	18626	2669	2
0	18658	2674	1
0	18679	2678	1
0	18686	2679	1
0	18693	2680	1
0	18700	2681	1
0	18709	2683	1
0	18726	2687	4
0	18742	2689	1
0	18751	2691	1
0	18758	2692	1
0	18765	2693	1
0	18835	2706	1
0	18847	2707	1
0	18857	2708	2
0	18874	2710	1
0	18912	2718	1
0	18937	2721	1
0	18943	2722	2
0	18961	2726	1
0	18987	2729	1
0	18999	2730	1
0	19018	2732	1
0	19028	2733	2
0	19048	2737	1
0	19059	2739	1
0	19073	2742	1
0	19094	2746	2
0	19116	2753	1
0	19129	2757	1
0	19143	2759	1
0	19157	2761	1
0	19173	2764	1
0	19180	2765	1
0	19187	2766	1
0	19209	2771	1
0	19264	2778	1
0	19350	2791	1
0	19368	2793	1
0	19387	2795	1
0	19424	2802	1
0	19432	2803	1
0	19438	2804	2
0	19447	2806	1
0	19492	2814	1
0	19503	2815	2
0	19516	2816	1
0	19552	2820	5
0	19564	2821	5
0	19612	2827	1
0	19650	2832	1
0	19682	2837	1
0	19719	2844	1
0	19733	2846	1
0	19743	2847	1
0	19752	2848	1
0	19759	2849	1
0	19793	2857	1
0	19811	2859	1
0	19830	2861	1
0	19881	2875	1
0	19893	2876	1
0	19901	2877	2
0	19907	2878	3
0	19920	2882	1
0	20049	2908	1
0	20076	2915	1
0	20103	2921	1
0	20151	2927	1
0	20186	2932	1
0	20215	2936	1
0	20244	2939	1
0	20265	2941	1
0	20292	2944	1
0	20336	2950	1
0	20382	2955	1
0	20407	2958	1
0	20657	2995	1
0	20678	2998	1
0	20691	3002	1
0	20703	3004	1
0	20712	3005	2
0	20729	3010	1
0	20739	3011	1
0	20755	3013	1
0	20775	3015	1
0	20828	3022	1
0	20852	3026	3
0	20889	3032	1
0	20908	3034	1
0	20924	3038	1
0	20931	3039	1
0	20942	3040	1
0	20992	3046	1
0	21057	3055	1
0	21070	3056	2
0	21081	3057	3
0	21092	3058	3
0	21103	3059	1
0	21113	3060	1
0	21120	3061	1
0	21142	3064	1
0	21159	3065	2
0	21169	3066	2
0	21180	3067	1
0	21210	3071	1
0	21240	3075	1
0	21283	3082	1
0	21296	3085	1
0	21320	3088	1
0	21346	3092	1
0	21375	3097	1
0	21393	3099	1
0	21399	3100	2
0	21425	3104	1
0	21467	3109	1
0	21480	3110	1
0	21491	3111	1
0	21535	3118	1
0	21551	3120	1
0	21566	3121	1
0	21584	3123	1
0	21623	3131	1
0	21662	3139	1
0	21682	3141	1
0	21706	3144	1
0	21718	3145	1
0	21752	3149	4
0	21762	3150	2
0	21786	3152	1
0	21797	3153	1
0	21809	3154	1
0	21840	3158	1
0	21909	3173	1
0	21920	3174	1
0	21941	3176	1
0	21974	3182	1
0	21984	3183	1
0	22003	3185	1
0	22016	3186	1
0	22026	3187	2
0	22045	3189	1
0	22066	3192	1
0	22076	3193	1
0	22087	3194	1
0	22111	3198	1
0	22120	3200	1
0	22142	3204	4
0	22148	3205	5
0	22154	3206	5
0	22160	3207	5
0	22170	3208	1
0	22179	3209	1
0	22188	3211	1
0	22208	3215	1
0	22218	3216	1
0	22227	3218	1
0	22238	3220	1
0	22259	3224	1
0	22290	3227	1
0	22333	3233	1
0	22353	3235	1
0	22391	3240	1
0	22420	3243	1
0	22431	3244	1
0	22455	3247	1
0	22528	3256	1
0	22563	3260	4
0	22574	3261	4
0	22584	3262	2
0	22604	3264	1
0	22616	3265	1
0	22627	3266	2
0	22656	3270	1
0	22695	3279	1
0	22706	3282	1
0	22717	3284	1
0	22728	3285	1
0	22735	3286	2
0	22743	3287	2
0	22749	3288	2
0	22755	3289	3
0	22773	3291	1
0	22785	3292	1
0	22803	3294	1
0	22823	3296	1
0	22847	3300	1
0	22864	3304	4
0	22874	3305	4
0	22883	3306	2
0	22892	3307	1
0	22903	3309	1
0	22943	3313	1
0	22966	3316	1
0	22978	3317	1
0	23005	3320	1
0	23057	3328	1
0	23068	3329	2
0	23080	3331	1
0	23110	3336	1
0	23117	3337	1
0	23183	3349	1
0	23193	3350	1
0	23200	3351	1
0	23225	3354	1
0	23243	3356	1
0	23264	3358	1
0	23294	3362	3
0	23303	3363	4
0	23350	3373	1
0	23361	3375	1
0	23372	3376	1
0	23378	3377	2
0	23401	3380	1
0	23411	3381	1
0	23433	3387	1
0	23443	3388	1
0	23462	3392	1
0	23486	3395	1
0	23517	3400	1
0	23530	3401	1
0	23552	3404	1
0	23559	3405	1
0	23577	3407	1
0	23619	3412	1
0	23630	3413	1
0	23675	3419	1
0	23708	3423	3
0	23725	3426	1
0	23760	3431	1
0	23769	3432	2
0	23776	3433	1
0	23797	3436	1
0	23808	3437	1
0	23819	3438	1
0	23832	3439	1
0	23849	3442	1
0	23866	3444	1
0	23899	3449	1
0	23908	3450	2
0	23933	3454	1
0	23943	3455	1
0	23968	3459	1
0	23989	3462	1
0	23998	3464	1
0	24023	3467	1
0	24033	3468	2
0	24141	3483	1
0	24169	3488	1
0	24195	3492	1
0	24211	3495	1
0	24222	3496	1
0	24230	3497	2
0	24241	3498	1
0	24252	3499	1
0	24265	3502	1
0	24272	3503	1
0	24281	3505	1
0	24310	3511	1
0	24327	3513	1
0	24342	3516	1
0	24353	3517	2
0	24362	3518	2
0	24388	3526	1
0	24419	3530	1
0	24435	3531	1
0	24485	3538	1
0	24516	3542	3
0	24565	3555	1
0	24577	3556	2
0	24587	3557	2
0	24607	3559	1
0	24618	3560	1
0	24658	3565	1
0	24684	3568	1
0	24695	3569	1
0	24719	3572	1
0	24730	3573	1
0	24784	3581	1
0	24794	3582	1
0	24803	3583	1
0	24814	3584	1
0	24834	3587	1
0	24852	3589	1
0	24869	3592	1
0	24878	3593	2
0	24887	3595	1
0	24918	3599	4
0	24927	3600	5
0	24936	3601	4
0	24944	3602	5
0	24954	3603	5
0	24967	3604	6
0	24977	3605	3
0	24990	3606	3
0	25094	3624	1
0	25172	3638	1
0	25209	3642	1
0	25238	3645	1
0	25255	3647	1
0	25285	3651	1
0	25309	3654	1
0	25320	3655	1
0	25344	3663	1
0	25433	3676	1
0	25477	3683	1
0	25555	3695	1
0	25597	3700	1
0	25617	3704	1
0	25676	3714	1
0	25703	3717	1
0	25713	3718	2
0	25738	3722	1
0	25745	3723	1
0	25786	3728	1
0	25797	3729	1
0	25821	3732	1
0	25835	3733	1
0	25848	3734	1
0	25916	3743	1
0	25935	3745	1
0	25952	3747	1
0	25970	3749	1
0	26018	3757	1
0	26042	3760	1
0	26085	3765	1
0	26126	3770	1
0	26164	3775	1
0	26224	3785	1
0	26250	3788	1
0	26275	3791	1
0	26296	3794	1
0	26305	3795	2
0	26316	3798	1
0	26364	3807	1
0	26403	3814	1
0	26444	3822	1
0	26453	3824	1
0	26462	3826	1
0	26474	3829	1
0	26481	3830	2
0	26487	3831	2
0	26535	3839	1
0	26561	3843	1
0	26568	3844	1
0	26575	3845	1
0	26639	3861	1
0	26752	3879	1
0	26770	3881	1
0	26791	3884	1
0	26801	3885	1
0	26852	3893	1
0	26862	3894	1
0	26905	3901	1
0	26931	3905	1
0	26944	3908	1
0	26954	3909	1
0	26977	3914	1
0	26988	3915	1
0	27002	3917	1
0	27014	3918	1
0	27088	3939	1
0	27137	3945	1
0	27150	3946	2
0	27160	3947	2
0	27190	3951	1
0	27204	3953	1
0	27241	3957	2
0	27265	3960	1
0	27274	3961	2
0	27316	3966	1
0	27333	3968	1
0	27344	3969	1
0	27378	3974	1
0	27395	3976	1
0	27401	3977	2
0	27420	3980	1
0	27488	3990	1
0	27497	3991	2
0	27531	3996	1
0	27541	3997	1
0	27552	3998	1
0	27588	4003	1
0	27598	4004	1
0	27608	4005	1
0	27614	4006	2
0	27676	4018	1
0	27718	4023	1
0	27738	4025	1
0	27762	4028	1
0	27819	4038	1
0	27852	4043	1
0	27868	4045	1
0	27878	4046	1
0	27900	4051	1
0	27922	4056	1
0	27957	4061	1
0	27983	4066	1
0	27994	4067	2
0	28004	4068	1
0	28038	4075	1
0	28049	4077	1
0	28066	4080	1
0	28082	4082	1
0	28101	4085	1
0	28130	4089	1
0	28140	4090	2
0	28157	4094	4
0	28167	4095	1
0	28180	4098	1
0	28211	4104	1
0	28224	4105	1
0	28267	4112	1
0	28284	4114	1
0	28303	4117	1
0	28310	4118	1
0	28335	4122	1
0	28349	4124	1
0	28356	4125	2
0	28362	4126	3
0	28369	4127	3
0	28375	4128	2
0	28382	4129	1
0	28410	4134	1
0	28428	4137	1
0	28442	4139	1
0	28449	4140	1
0	28478	4145	1
0	28495	4147	1
0	28506	4148	1
0	28517	4149	1
0	28537	4151	1
0	28570	4155	1
0	28613	4160	1
0	28684	4169	1
0	28729	4175	1
0	28746	4177	1
0	28763	4179	1
0	28776	4180	1
0	28788	4181	2
0	28799	4182	1
0	28814	4183	1
0	28833	4185	1
0	28845	4186	1
0	28855	4187	2
0	28906	4195	1
0	28912	4196	2
0	28933	4200	4
0	28945	4202	1
0	28963	4206	1
0	28976	4209	1
0	29005	4213	1
0	29036	4217	1
0	29094	4225	1
0	29107	4226	1
0	29125	4228	1
0	29144	4230	1
0	29169	4234	1
0	29187	4238	1
0	29205	4240	1
0	29218	4241	1
0	29241	4244	1
0	29271	4248	1
0	29288	4250	1
0	29300	4252	1
0	29308	4253	1
0	29317	4254	2
0	29340	4258	1
0	29360	4260	1
0	29444	4273	1
0	29453	4274	2
0	29462	4275	1
0	29504	4280	1
0	29515	4281	1
0	29538	4283	1
0	29549	4284	2
0	29592	4290	1
0	29610	4292	1
0	29628	4294	1
0	29684	4304	1
0	29695	4305	1
0	29706	4306	1
0	29735	4311	1
0	29752	4313	1
0	29770	4315	1
0	29786	4317	1
0	29816	4322	1
0	29837	4326	4
0	29848	4327	5
0	29862	4328	5
0	29873	4329	2
0	29889	4330	2
0	29916	4333	1
0	29935	4335	1
0	29969	4339	1
0	30018	4345	1
0	30028	4346	2
0	30090	4354	1
0	30104	4355	1
0	30118	4356	1
0	30146	4359	1
0	30156	4360	2
0	30168	4361	1
0	30200	4365	1
0	30262	4373	1
0	30327	4382	1
0	30337	4383	2
0	30372	4387	1
0	30383	4388	1
0	30401	4390	1
0	30412	4391	2
0	30422	4392	2
0	30499	4402	1
0	30510	4403	1
0	30564	4410	1
0	30593	4414	1
0	30630	4419	1
0	30667	4424	1
0	30677	4426	1
0	30683	4427	2
0	30706	4432	1
0	30718	4433	2
0	30727	4434	2
0	30747	4439	1
0	30763	4442	1
0	30795	4448	1
0	30805	4449	2
0	30828	4453	1
0	30860	4458	1
0	30871	4459	2
0	30889	4461	1
0	30923	4468	1
0	30933	4469	1
0	30976	4475	1
0	30983	4476	2
0	30992	4477	2
0	31001	4478	1
0	31011	4479	1
0	31040	4485	1
0	31065	4488	1
0	31110	4494	1
0	31183	4509	1
0	31231	4517	1
0	31243	4518	1
0	31294	4527	1
0	31301	4528	1
0	31317	4531	1
0	31341	4535	1
0	31352	4537	1
0	31362	4538	1
0	31375	4539	1
0	31385	4540	2
0	31411	4544	1
0	31431	4546	1
0	31440	4547	2
0	31467	4552	1
0	31479	4553	1
0	31489	4554	1
0	31580	4571	1
0	31625	4581	1
0	31648	4585	1
0	31680	4588	1
0	31709	4591	1
0	31765	4598	1
0	31815	4605	1
0	31826	4606	1
0	31851	4609	1
0	31884	4613	4
0	31895	4614	5
0	31906	4615	6
0	31916	4616	2
0	31969	4625	1
0	31981	4627	1
0	31996	4629	1
0	32002	4630	2
0	32012	4631	1
0	32052	4637	1
0	32059	4638	2
0	32068	4639	2
0	32080	4640	1
0	32092	4641	1
0	32119	4646	1
0	32130	4647	1
0	32141	4648	1
0	32173	4652	1
0	32210	4659	1
0	32222	4660	1
0	32257	4664	5
0	32268	4665	2
0	32279	4666	1
0	32296	4668	1
0	32318	4672	1
0	32327	4673	2
0	32349	4678	1
0	32359	4679	1
0	32371	4680	1
0	32384	4681	1
0	32395	4682	2
0	32409	4684	1
0	32418	4685	2
0	32448	4689	1
0	32538	4705	1
0	32545	4706	1
0	32585	4712	1
0	32598	4713	1
0	32630	4717	1
0	32648	4719	1
0	32685	4724	1
0	32694	4725	2
0	32731	4733	1
0	32738	4734	2
0	32750	4735	2
0	32762	4736	2
0	32773	4737	3
0	32815	4745	1
0	32825	4746	2
0	32837	4747	1
0	32849	4748	2
0	32866	4751	1
0	32873	4752	1
0	32906	4757	1
0	32931	4761	1
0	32985	4768	1
0	32995	4769	2
0	33046	4778	1
0	33067	4780	1
0	33077	4781	2
0	33110	4785	1
0	33122	4786	2
0	33132	4787	2
0	33141	4788	3
0	33189	4797	1
0	33214	4800	1
0	33227	4801	2
0	33237	4802	2
0	33276	4807	1
0	33339	4818	1
0	33360	4821	1
0	33463	4835	1
0	33479	4837	1
0	33551	4851	1
0	33580	4855	1
0	33595	4860	1
0	33611	4863	1
0	33655	4870	1
0	33664	4872	1
0	33675	4875	1
0	33729	4885	1
0	33739	4886	2
0	33746	4887	2
0	33755	4888	2
0	33766	4890	1
0	33790	4896	1
0	33814	4899	1
0	33821	4900	1
0	33839	4904	1
0	33862	4908	1
0	33887	4912	1
0	33904	4914	1
0	33911	4915	1
0	33918	4916	1
0	33946	4920	1
0	33970	4923	1
0	34001	4927	1
0	34026	4930	1
0	34039	4931	1
0	34049	4932	2
0	34083	4936	6
0	34107	4939	1
0	34117	4940	1
0	34129	4941	1
0	34159	4945	1
0	34182	4947	1
0	34205	4950	1
0	34216	4951	1
0	34226	4952	1
0	34244	4956	1
0	34284	4961	1
0	34295	4962	1
0	34319	4966	1
0	34355	4974	1
0	34391	4980	1
0	34415	4983	1
0	34511	4998	1
0	34522	4999	1
1	2761	401	0
1	2762	401	1
1	2773	402	0
1	2788	404	1
1	2788	404	0
1	2789	404	1
1	2802	405	0
1	2920	421	1
1	2920	421	0
1	3035	438	1
1	3035	438	0
1	3053	441	1
1	3053	441	0
1	3134	454	1
1	3134	454	0
1	3135	454	1
1	3145	455	0
1	3160	457	1
1	3160	457	0
1	3169	459	1
1	3169	459	0
1	3197	463	1
1	3197	463	0
1	3238	468	1
1	3238	468	0
1	3258	470	1
1	3258	470	0
1	3267	471	1
1	3269	471	0
1	3300	475	1
1	3300	475	0
1	3301	475	1
1	3310	476	2
1	3312	476	1
1	3319	477	2
1	3322	477	1
1	3329	478	2
1	3336	478	1
1	3343	479	2
1	3344	479	3
1	3345	479	4
1	3349	479	3
1	3379	483	2
1	3392	484	1
1	3401	485	2
1	3405	485	1
1	3414	486	2
1	3416	486	1
1	3426	487	0
1	3435	488	1
1	3436	488	2
1	3438	488	1
1	3449	489	0
1	3458	490	1
1	3460	490	0
1	3476	493	1
1	3476	493	0
1	3497	495	1
1	3497	495	0
1	3507	496	1
1	3510	496	0
1	3543	500	1
1	3543	500	0
1	3602	508	1
1	3602	508	0
1	3603	508	1
1	3604	508	2
1	3605	508	3
1	3617	509	2
1	3626	510	3
1	3628	510	2
1	3638	511	1
1	3647	512	0
1	3654	513	1
1	3658	513	0
1	3667	515	1
1	3667	515	0
1	3684	517	1
1	3684	517	0
1	3699	519	1
1	3706	520	2
1	3714	521	1
1	3724	522	2
1	3726	522	1
1	3735	523	0
1	3780	531	1
1	3780	531	0
1	3837	543	1
1	3837	543	0
1	3838	543	1
1	3847	544	0
1	3899	551	1
1	3899	551	0
1	3945	562	1
1	3945	562	0
1	3946	562	1
1	3953	563	2
1	3960	563	1
1	3967	564	2
1	3971	564	1
1	3982	565	0
1	4017	570	1
1	4017	570	0
1	4018	570	1
1	4033	571	0
1	4051	573	1
1	4051	573	0
1	4074	576	1
1	4074	576	0
1	4083	577	1
1	4085	577	0
1	4092	578	1
1	4093	578	2
1	4096	578	1
1	4103	579	2
1	4108	579	1
1	4118	580	0
1	4137	583	1
1	4137	583	0
1	4174	590	1
1	4174	590	0
1	4175	590	1
1	4184	591	0
1	4219	600	1
1	4219	600	0
1	4236	602	1
1	4236	602	0
1	4243	603	1
1	4248	603	0
1	4293	612	1
1	4293	612	0
1	4313	617	1
1	4313	617	0
1	4341	621	1
1	4341	621	0
1	4363	623	1
1	4363	623	0
1	4372	624	1
1	4374	624	0
1	4399	627	1
1	4399	627	0
1	4425	630	1
1	4425	630	0
1	4442	632	1
1	4442	632	0
1	4457	634	1
1	4457	634	0
1	4474	636	1
1	4474	636	0
1	4481	637	1
1	4484	637	0
1	4491	638	1
1	4495	638	0
1	4546	646	1
1	4546	646	0
1	4563	648	1
1	4563	648	0
1	4594	652	1
1	4594	652	0
1	4611	654	1
1	4627	656	0
1	4638	657	1
1	4640	657	0
1	4661	659	1
1	4661	659	0
1	4692	663	1
1	4692	663	0
1	4709	665	1
1	4709	665	0
1	4736	668	1
1	4736	668	0
1	4737	668	1
1	4738	668	2
1	4748	669	1
1	4758	670	0
1	4765	671	1
1	4767	671	0
1	4776	673	1
1	4776	673	0
1	4788	675	1
1	4788	675	0
1	4798	676	1
1	4800	676	0
1	4832	682	1
1	4832	682	0
1	4857	687	1
1	4857	687	0
1	4876	691	1
1	4876	691	0
1	4928	699	1
1	4928	699	0
1	4942	702	1
1	4942	702	0
1	4958	704	1
1	4958	704	0
1	4969	707	1
1	4969	707	0
1	5005	715	1
1	5005	715	0
1	5033	719	1
1	5033	719	0
1	5042	720	1
1	5043	720	2
1	5049	720	1
1	5058	721	2
1	5060	721	1
1	5070	722	0
1	5115	730	1
1	5115	730	0
1	5116	730	1
1	5126	731	0
1	5142	734	1
1	5142	734	0
1	5158	737	1
1	5158	737	0
1	5189	744	1
1	5189	744	0
1	5197	745	1
1	5199	745	0
1	5216	748	1
1	5216	748	0
1	5245	753	1
1	5245	753	0
1	5246	753	1
1	5255	754	0
1	5262	755	1
1	5263	755	2
1	5269	755	1
1	5279	756	0
1	5286	757	1
1	5290	757	0
1	5307	763	1
1	5307	763	0
1	5312	764	1
1	5315	764	0
1	5346	770	1
1	5346	770	0
1	5351	771	1
1	5353	771	0
1	5373	774	1
1	5381	775	0
1	5399	777	1
1	5399	777	0
1	5431	783	1
1	5431	783	0
1	5454	786	1
1	5454	786	0
1	5459	787	1
1	5463	787	0
1	5485	790	1
1	5485	790	0
1	5514	796	1
1	5514	796	0
1	5589	809	1
1	5589	809	0
1	5613	813	1
1	5613	813	0
1	5644	819	1
1	5644	819	0
1	5645	819	1
1	5655	820	0
1	5682	825	1
1	5682	825	0
1	5719	831	1
1	5719	831	0
1	5728	833	1
1	5728	833	0
1	5742	835	1
1	5742	835	0
1	5782	840	1
1	5782	840	0
1	5827	846	1
1	5827	846	0
1	5871	852	1
1	5871	852	0
1	5896	855	1
1	5896	855	0
1	5905	856	1
1	5907	856	0
1	5933	861	1
1	5933	861	0
1	5971	865	1
1	5971	865	0
1	5981	866	1
1	5983	866	0
1	5992	867	1
1	5994	867	0
1	6018	870	1
1	6018	870	0
1	6053	876	1
1	6053	876	0
1	6060	877	1
1	6061	877	2
1	6064	877	1
1	6076	878	0
1	6091	880	1
1	6091	880	0
1	6102	882	1
1	6102	882	0
1	6177	893	1
1	6177	893	0
1	6218	900	1
1	6218	900	0
1	6223	901	1
1	6225	901	0
1	6234	903	1
1	6234	903	0
1	6272	908	1
1	6272	908	0
1	6273	908	1
1	6285	909	0
1	6300	911	1
1	6300	911	0
1	6301	911	1
1	6310	912	0
1	6317	913	1
1	6319	913	0
1	6339	916	1
1	6339	916	0
1	6340	916	1
1	6357	918	2
1	6362	919	3
1	6369	920	2
1	6370	920	3
1	6379	921	2
1	6393	922	1
1	6404	923	0
1	6411	924	1
1	6412	924	2
1	6416	924	1
1	6426	925	0
1	6433	926	1
1	6437	926	0
1	6489	934	1
1	6489	934	0
1	6490	934	1
1	6500	935	0
1	6509	936	1
1	6510	936	2
1	6512	936	1
1	6521	937	2
1	6522	937	3
1	6525	937	2
1	6535	938	1
1	6545	939	0
1	6568	944	1
1	6568	944	0
1	6577	945	1
1	6579	945	0
1	6588	946	1
1	6591	946	0
1	6632	951	1
1	6632	951	0
1	6702	961	1
1	6702	961	0
1	6726	964	1
1	6726	964	0
1	6727	964	1
1	6739	965	0
1	6756	967	1
1	6771	969	0
1	6778	970	1
1	6780	970	0
1	6785	971	1
1	6787	971	0
1	6815	976	1
1	6815	976	0
1	6837	978	1
1	6837	978	0
1	6846	979	1
1	6848	979	0
1	6857	980	1
1	6863	980	0
1	6937	991	1
1	6937	991	0
1	6956	994	1
1	6956	994	0
1	6972	996	1
1	6972	996	0
1	6981	998	1
1	6981	998	0
1	7023	1004	1
1	7023	1004	0
1	7034	1007	1
1	7034	1007	0
1	7035	1007	1
1	7047	1008	2
1	7049	1008	1
1	7063	1009	0
1	7080	1011	1
1	7080	1011	0
1	7118	1016	1
1	7118	1016	0
1	7135	1018	1
1	7135	1018	0
1	7153	1020	1
1	7153	1020	0
1	7160	1021	1
1	7162	1021	0
1	7193	1026	1
1	7193	1026	0
1	7213	1028	1
1	7213	1028	0
1	7267	1038	1
1	7267	1038	0
1	7292	1044	1
1	7292	1044	0
1	7303	1046	1
1	7303	1046	0
1	7369	1056	1
1	7369	1056	0
1	7370	1056	1
1	7381	1057	0
1	7399	1059	1
1	7399	1059	0
1	7411	1060	1
1	7415	1060	0
1	7432	1062	1
1	7432	1062	0
1	7465	1066	1
1	7465	1066	0
1	7474	1067	1
1	7476	1067	0
1	7499	1070	1
1	7499	1070	0
1	7506	1071	1
1	7509	1071	0
1	7541	1076	1
1	7541	1076	0
1	7548	1077	1
1	7551	1077	0
1	7564	1079	1
1	7564	1079	0
1	7577	1083	1
1	7577	1083	0
1	7585	1084	1
1	7587	1084	0
1	7640	1092	1
1	7640	1092	0
1	7641	1092	1
1	7667	1096	0
1	7683	1098	1
1	7683	1098	0
1	7691	1099	1
1	7697	1099	0
1	7715	1101	1
1	7715	1101	0
1	7716	1101	1
1	7727	1102	0
1	7759	1106	1
1	7759	1106	0
1	7860	1119	1
1	7860	1119	0
1	7899	1124	1
1	7899	1124	0
1	7949	1130	1
1	7949	1130	0
1	7968	1132	1
1	7968	1132	0
1	8005	1137	1
1	8005	1137	0
1	8050	1143	1
1	8050	1143	0
1	8078	1146	1
1	8078	1146	0
1	8108	1150	1
1	8108	1150	0
1	8117	1151	1
1	8118	1151	2
1	8120	1151	1
1	8130	1152	0
1	8139	1153	1
1	8141	1153	0
1	8150	1154	1
1	8154	1154	0
1	8163	1155	1
1	8165	1155	0
1	8245	1166	1
1	8245	1166	0
1	8246	1166	1
1	8276	1170	0
1	8283	1171	1
1	8285	1171	0
1	8300	1176	1
1	8300	1176	0
1	8308	1177	1
1	8310	1177	0
1	8356	1185	1
1	8356	1185	0
1	8357	1185	1
1	8368	1186	0
1	8399	1192	1
1	8399	1192	0
1	8408	1193	1
1	8410	1193	0
1	8443	1197	1
1	8443	1197	0
1	8487	1203	1
1	8487	1203	0
1	8505	1206	1
1	8505	1206	0
1	8551	1212	1
1	8551	1212	0
1	8560	1213	1
1	8562	1213	0
1	8591	1218	1
1	8591	1218	0
1	8601	1219	1
1	8603	1219	0
1	8659	1227	1
1	8659	1227	0
1	8679	1229	1
1	8679	1229	0
1	8698	1231	1
1	8698	1231	0
1	8699	1231	1
1	8709	1232	2
1	8711	1232	1
1	8722	1233	0
1	8744	1236	1
1	8753	1237	0
1	8754	1237	1
1	8763	1238	2
1	8765	1238	1
1	8774	1239	2
1	8776	1239	1
1	8784	1240	0
1	8828	1252	1
1	8828	1252	0
1	8829	1252	1
1	8836	1253	0
1	8843	1254	1
1	8847	1254	0
1	8858	1257	1
1	8858	1257	0
1	8907	1265	1
1	8907	1265	0
1	8950	1271	1
1	8950	1271	0
1	8969	1275	1
1	8969	1275	0
1	9028	1287	1
1	9028	1287	0
1	9040	1289	1
1	9040	1289	0
1	9059	1291	1
1	9059	1291	0
1	9084	1296	1
1	9084	1296	0
1	9138	1303	1
1	9138	1303	0
1	9139	1303	1
1	9149	1304	0
1	9175	1307	1
1	9175	1307	0
1	9205	1311	1
1	9205	1311	0
1	9242	1319	1
1	9242	1319	0
1	9301	1329	1
1	9301	1329	0
1	9397	1346	1
1	9397	1346	0
1	9398	1346	1
1	9408	1347	0
1	9423	1349	1
1	9423	1349	0
1	9424	1349	1
1	9430	1350	0
1	9459	1355	1
1	9459	1355	0
1	9481	1358	1
1	9481	1358	0
1	9523	1365	1
1	9523	1365	0
1	9572	1376	1
1	9572	1376	0
1	9577	1377	1
1	9578	1377	2