version 3
run Experimentos-848-20260508-20:06:19-32078
attr configname Experimentos
attr datetime 20260508-20:06:19
attr datetimef 20260508-200619
attr experiment Experimentos
attr inifile TwoQueues.ini
attr iterationvars "$p=0.7, $q=0.3, $Y=20, $m=4"
attr iterationvarsd p=0.7/q=0.3/Y=20/m=4
attr iterationvarsf p=0.7,q=0.3,Y=20,m=4-
attr measurement "$p=0.7, $q=0.3, $Y=20, $m=4"
attr network TwoQueues
attr processid 32078
attr repetition 8
attr replication #8
attr resultdir results
attr runnumber 848
attr seedset 848
itervar Y 20
itervar m 4
itervar p 0.7
itervar q 0.3
config description "Barrido completo de parámetros Proyecto 12"
config **.source1.p 0.7
config **.source1.q 0.2
config **.source2.p 0.6
config **.source2.q 0.3
config **.serverWithMaintenance.Y 20
config **.serverWithMaintenance.m 4
config network TwoQueues
config cpu-time-limit 5000s
config sim-time-limit 5000s
config warmup-period 400s
config repeat 20
config output-scalar-file results/Experimentos-p=0.7,q=0.3,Y=20,m=4--#8.sca
config output-vector-file results/Experimentos-p=0.7,q=0.3,Y=20,m=4--#8.vec
config **.vector-recording true

vector 0 TwoQueues.serverWithMaintenance residenceTime2:vector ETV
attr recordingmode vector
attr source delay2
attr title "Residence Time Class 2"
vector 1 TwoQueues.queue2 queueLengthStats:vector ETV
attr recordingmode vector
attr source qlen
attr title "Average Queue Length"
vector 2 TwoQueues.queue1 queueLengthStats:vector ETV
attr recordingmode vector
attr source qlen
attr title "Average Queue Length"
vector 3 TwoQueues.server residenceTime1:vector ETV
attr recordingmode vector
attr source delay1
attr title "Residence Time Class 1"
vector 4 TwoQueues.server throughputStats1:vector ETV
attr recordingmode vector
attr source throughput1
attr title "Throughput Class 1"
0	2294	400	1
0	2338	408	1
0	2362	415	1
0	2392	420	5
0	2398	421	5
0	2405	422	5
0	2414	423	4
0	2422	424	5
0	2432	425	4
0	2443	426	1
0	2453	427	1
0	2462	428	2
0	2508	435	1
0	2569	453	1
0	2609	463	1
0	2627	467	1
0	2649	473	1
0	2656	474	1
0	2663	475	1
0	2676	476	1
0	2686	477	2
0	2723	483	1
0	2733	484	2
0	2771	495	1
0	2782	496	2
0	2793	497	3
0	2803	498	2
0	2827	503	1
0	2837	504	1
0	2864	514	1
0	2885	519	1
0	2897	520	1
0	2953	531	1
0	2967	534	1
0	2978	537	1
0	3010	545	1
0	3020	546	2
0	3028	547	2
0	3055	553	1
0	3084	560	1
0	3102	564	1
0	3115	567	1
0	3127	568	1
0	3153	574	1
0	3167	578	1
0	3173	579	2
0	3205	585	1
0	3223	587	1
0	3234	588	1
0	3250	590	1
0	3272	595	1
0	3296	598	1
0	3320	605	1
0	3329	607	1
0	3341	609	1
0	3351	610	2
0	3357	611	2
0	3368	614	1
0	3391	623	1
0	3419	629	1
0	3425	630	2
0	3432	631	1
0	3441	633	1
0	3464	638	5
0	3504	643	1
0	3525	647	1
0	3534	649	1
0	3541	650	1
0	3554	654	1
0	3575	657	1
0	3590	662	1
0	3603	665	1
0	3651	674	1
0	3671	680	1
0	3704	685	1
0	3714	686	2
0	3724	687	3
0	3742	689	1
0	3761	692	1
0	3767	693	2
0	3792	698	1
0	3807	702	1
0	3847	707	1
0	3876	712	2
0	3888	714	1
0	3909	716	1
0	3955	725	1
0	3967	726	1
0	3978	727	1
0	3994	731	1
0	4004	732	1
0	4027	735	1
0	4034	736	1
0	4070	744	1
0	4085	749	1
0	4096	752	1
0	4105	754	1
0	4114	755	1
0	4121	756	2
0	4127	757	3
0	4137	758	3
0	4150	759	2
0	4158	760	2
0	4175	765	7
0	4181	766	4
0	4187	767	4
0	4197	768	1
0	4209	769	1
0	4235	776	1
0	4242	777	1
0	4290	786	1
0	4297	787	1
0	4304	788	1
0	4323	792	1
0	4329	793	2
0	4336	794	1
0	4363	800	1
0	4377	802	1
0	4395	806	1
0	4402	807	1
0	4473	820	1
0	4482	822	1
0	4498	824	1
0	4526	829	5
0	4537	830	6
0	4546	831	3
0	4557	834	1
0	4574	840	1
0	4643	858	1
0	4670	862	1
0	4688	867	1
0	4762	883	1
0	4774	884	1
0	4786	885	1
0	4800	887	1
0	4823	892	1
0	4870	903	1
0	4907	909	1
0	4919	910	2
0	4930	911	2
0	4939	912	3
0	4948	913	3
0	4957	914	1
0	4984	919	2
0	4993	920	2
0	5030	925	1
0	5040	926	2
0	5049	927	3
0	5056	928	1
0	5089	936	1
0	5106	938	1
0	5121	942	1
0	5150	950	1
0	5161	952	1
0	5167	953	2
0	5173	954	3
0	5205	960	1
0	5230	965	1
0	5288	974	1
0	5295	975	1
0	5316	978	1
0	5323	979	1
0	5335	981	1
0	5365	986	3
0	5375	987	1
0	5443	997	1
0	5473	1001	1
0	5480	1002	1
0	5540	1017	1
0	5588	1026	1
0	5598	1027	1
0	5607	1028	1
0	5618	1029	1
0	5643	1032	1
0	5656	1033	1
0	5667	1034	2
0	5678	1035	1
0	5708	1040	1
0	5739	1048	1
0	5751	1049	1
0	5807	1058	1
0	5816	1060	1
0	5823	1061	1
0	5849	1066	1
0	5859	1068	1
0	5865	1069	2
0	5885	1074	1
0	5920	1079	1
0	5933	1083	1
0	5961	1088	1
0	5985	1094	1
0	6000	1099	1
0	6007	1100	1
0	6014	1101	1
0	6028	1104	1
0	6038	1105	2
0	6044	1106	2
0	6058	1109	1
0	6085	1113	1
0	6099	1116	1
0	6106	1117	1
0	6153	1128	1
0	6171	1132	1
0	6196	1137	5
0	6205	1138	3
0	6211	1139	3
0	6222	1142	1
0	6233	1145	1
0	6256	1149	1
0	6263	1150	1
0	6270	1151	1
0	6277	1152	1
0	6288	1153	1
0	6300	1154	2
0	6310	1155	2
0	6316	1156	2
0	6327	1157	3
0	6344	1159	1
0	6356	1160	1
0	6368	1161	1
0	6394	1164	1
0	6405	1165	2
0	6418	1167	1
0	6451	1172	6
0	6489	1180	1
0	6498	1182	1
0	6530	1190	1
0	6536	1191	2
0	6545	1193	1
0	6552	1194	1
0	6570	1197	1
0	6582	1198	1
0	6594	1200	1
0	6603	1202	1
0	6641	1211	1
0	6712	1226	1
0	6719	1227	2
0	6725	1228	2
0	6749	1235	1
0	6775	1242	1
0	6872	1265	1
0	6897	1268	1
0	6938	1277	1
0	6955	1282	3
0	6961	1283	3
0	6991	1287	1
0	7014	1292	1
0	7052	1301	1
0	7066	1304	1
0	7078	1305	2
0	7087	1306	2
0	7118	1314	1
0	7126	1315	1
0	7132	1316	2
0	7154	1322	1
0	7170	1325	1
0	7210	1334	1
0	7237	1341	1
0	7248	1344	1
0	7276	1352	1
0	7290	1354	1
0	7307	1356	1
0	7314	1357	1
0	7335	1362	5
0	7360	1367	1
0	7377	1369	1
0	7389	1370	1
0	7425	1376	1
0	7437	1378	1
0	7493	1386	1
0	7509	1389	1
0	7520	1392	1
0	7530	1394	1
0	7537	1395	2
0	7543	1396	2
0	7600	1409	1
0	7609	1410	2
0	7622	1412	1
0	7638	1414	1
0	7650	1415	1
0	7660	1416	2
0	7672	1418	1
0	7680	1419	1
0	7699	1424	6
0	7708	1425	4
0	7714	1426	5
0	7721	1427	1
0	7732	1428	1
0	7760	1432	1
0	7779	1434	1
0	7844	1446	1
0	7851	1447	1
0	7858	1448	1
0	7873	1453	1
0	7883	1454	1
0	7892	1455	1
0	7899	1456	1
0	7909	1457	1
0	7920	1459	1
0	7945	1464	1
0	7973	1471	1
0	7983	1472	2
0	7999	1476	1
0	8024	1483	1
0	8035	1486	1
0	8055	1491	1
0	8127	1501	1
0	8137	1502	2
0	8180	1508	1
0	8190	1509	2
0	8215	1512	1
0	8247	1518	1
0	8258	1519	1
0	8269	1520	1
0	8278	1521	2
0	8320	1531	1
0	8330	1532	1
0	8355	1536	1
0	8364	1538	1
0	8372	1539	1
0	8378	1540	2
0	8389	1541	1
0	8398	1542	2
0	8415	1547	6
0	8421	1548	6
0	8427	1549	5
0	8465	1555	1
0	8476	1556	1
0	8507	1560	1
0	8522	1561	1
0	8568	1567	1
0	8579	1568	1
0	8610	1573	1
0	8619	1575	1
0	8626	1576	1
0	8648	1582	1
0	8658	1583	1
0	8688	1587	1
0	8698	1588	1
0	8707	1589	1
0	8723	1591	1
0	8749	1594	1
0	8799	1605	1
0	8824	1610	5
0	8837	1611	5
0	8847	1612	2
0	8856	1613	3
0	8872	1616	1
0	8879	1617	1
0	8917	1623	1
0	8923	1624	2
0	8938	1629	1
0	8947	1631	1
0	8961	1633	1
0	8977	1636	1
0	8990	1640	1
0	9021	1648	1
0	9028	1649	1
0	9052	1655	1
0	9062	1656	1
0	9095	1664	1
0	9109	1666	1
0	9130	1670	1
0	9154	1675	3
0	9165	1676	2
0	9189	1679	1
0	9207	1683	1
0	9224	1686	1
0	9233	1687	2
0	9246	1690	1
0	9299	1700	1
0	9308	1701	2
0	9342	1708	1
0	9349	1709	1
0	9372	1718	1
0	9385	1722	1
0	9394	1724	1
0	9414	1729	1
0	9430	1731	1
0	9440	1732	1
0	9456	1734	1
0	9471	1736	1
0	9514	1743	1
0	9535	1748	4
0	9544	1749	5
0	9555	1750	5
0	9619	1760	1
0	9656	1766	1
0	9677	1770	1
0	9685	1771	1
0	9691	1772	2
0	9700	1774	1
0	9737	1780	1
0	9744	1781	1
0	9764	1786	1
0	9773	1788	1
0	9781	1789	1
0	9788	1790	2
0	9795	1791	2
0	9801	1792	2
0	9812	1794	1
0	9836	1797	1
0	9855	1800	1
0	9881	1805	6
0	9900	1807	1
0	9922	1809	1
0	9934	1810	1
0	9944	1811	2
0	9968	1815	1
0	9976	1816	1
0	9988	1817	2
0	9998	1818	2
0	10041	1829	1
0	10063	1835	1
0	10072	1837	1
0	10093	1841	1
0	10126	1848	1
0	10143	1850	1
0	10163	1854	1
0	10182	1856	1
0	10194	1858	1
0	10207	1862	1
0	10214	1863	1
0	10233	1868	2
0	10244	1869	3
0	10256	1870	1
0	10314	1880	1
0	10335	1883	1
0	10342	1884	1
0	10374	1889	1
0	10389	1892	1
0	10400	1893	2
0	10421	1896	1
0	10431	1897	1
0	10440	1898	1
0	10447	1899	1
0	10461	1901	1
0	10479	1904	1
0	10494	1906	1
0	10506	1907	2
0	10516	1908	2
0	10525	1909	2
0	10558	1916	1
0	10591	1921	5
0	10600	1922	5
0	10606	1923	5
0	10619	1927	1
0	10655	1936	1
0	10664	1937	2
0	10671	1938	1
0	10682	1941	1
0	10693	1943	1
0	10719	1946	1
0	10737	1948	1
0	10747	1949	2
0	10758	1950	1
0	10776	1953	1
0	10794	1956	1
0	10806	1957	1
0	10824	1959	1
0	10830	1960	2
0	10868	1967	1
0	10881	1968	2
0	10921	1973	4
0	10930	1974	4
0	10939	1975	5
0	10972	1979	1
0	10986	1980	1
0	10999	1981	1
0	11051	1990	1
0	11058	1991	1
0	11070	1993	1
0	11079	1994	2
0	11086	1995	1
0	11095	1997	1
0	11104	1999	1
0	11111	2000	1
0	11122	2002	1
0	11139	2004	1
0	11186	2014	1
0	11192	2015	2
0	11198	2016	3
0	11234	2022	1
0	11263	2027	6
0	11270	2028	6
0	11276	2029	4
0	11282	2030	3
0	11296	2032	1
0	11303	2033	1
0	11370	2044	1
0	11377	2045	1
0	11388	2047	1
0	11423	2053	1
0	11432	2055	1
0	11439	2056	1
0	11446	2057	1
0	11459	2060	1
0	11469	2061	1
0	11487	2063	1
0	11527	2068	1
0	11545	2070	1
0	11599	2081	1
0	11615	2083	1
0	11679	2098	1
0	11688	2100	1
0	11695	2101	1
0	11772	2116	1
0	11788	2119	1
0	11799	2120	1
0	11806	2121	2
0	11815	2122	2
0	11827	2123	1
0	11842	2127	1
0	11853	2130	1
0	11873	2134	1
0	11904	2138	1
0	11914	2140	1
0	11922	2141	2
0	11928	2142	2
0	11934	2143	3
0	11941	2144	1
0	11948	2145	1
0	11962	2149	1
0	11992	2154	6
0	12003	2156	1
0	12014	2157	1
0	12022	2158	2
0	12028	2159	2
0	12034	2160	3
0	12041	2161	1
0	12052	2164	1
0	12069	2166	1
0	12096	2171	1
0	12109	2174	1
0	12131	2180	1
0	12141	2181	1
0	12148	2182	1
0	12158	2184	1
0	12165	2185	2
0	12171	2186	2
0	12182	2188	1
0	12195	2189	1
0	12215	2193	1
0	12231	2198	4
0	12242	2200	1
0	12254	2202	1
0	12289	2207	1
0	12296	2208	1
0	12306	2209	1
0	12333	2213	1
0	12370	2220	1
0	12381	2222	1
0	12387	2223	2
0	12394	2224	3
0	12400	2225	2
0	12416	2228	1
0	12429	2232	1
0	12439	2233	1
0	12474	2237	1
0	12484	2238	2
0	12495	2239	1
0	12533	2249	1
0	12545	2250	1
0	12581	2255	6
0	12591	2256	5
0	12601	2257	6
0	12611	2258	5
0	12619	2259	4
0	12652	2268	1
0	12675	2272	1
0	12693	2275	1
0	12724	2281	1
0	12730	2282	2
0	12737	2283	1
0	12790	2291	1
0	12845	2302	1
0	12853	2303	1
0	12863	2304	2
0	12871	2305	2
0	12887	2310	1
0	12897	2311	2
0	12906	2312	2
0	12912	2313	2
0	12947	2318	5
0	12959	2319	4
0	12968	2320	2
0	12978	2321	3
0	12987	2322	2
0	12993	2323	2
0	13012	2330	1
0	13036	2336	1
0	13042	2337	2
0	13048	2338	3
0	13059	2339	1
0	13067	2340	2
0	13139	2352	1
0	13163	2355	1
0	13169	2356	2
0	13180	2357	1
0	13191	2358	1
0	13200	2359	1
0	13209	2361	1
0	13220	2362	1
0	13248	2367	4
0	13257	2368	3
0	13276	2370	1
0	13310	2375	1
0	13339	2379	1
0	13357	2381	1
0	13369	2383	1
0	13385	2387	1
0	13415	2391	1
0	13425	2393	1
0	13431	2394	2
0	13450	2397	1
0	13468	2400	1
0	13475	2401	1
0	13484	2403	1
0	13496	2406	1
0	13502	2407	2
0	13522	2411	1
0	13534	2413	1
0	13543	2415	1
0	13597	2422	1
0	13635	2427	1
0	13648	2428	1
0	13657	2429	2
0	13683	2433	1
0	13704	2436	1
0	13724	2439	1
0	13740	2441	1
0	13772	2445	1
0	13790	2447	1
0	13802	2449	1
0	13815	2452	1
0	13825	2453	1
0	13872	2464	1
0	13888	2467	1
0	13901	2470	1
0	13930	2474	1
0	13954	2480	1
0	13969	2485	1
0	13976	2486	1
0	13999	2491	1
0	14062	2501	1
0	14074	2502	1
0	14084	2503	2
0	14093	2504	1
0	14104	2507	1
0	14114	2508	1
0	14134	2512	1
0	14143	2514	1
0	14150	2515	1
0	14164	2517	1
0	14182	2521	1
0	14189	2522	1
0	14196	2523	1
0	14264	2538	1
0	14273	2539	2
0	14296	2545	1
0	14302	2546	2
0	14309	2547	1
0	14331	2551	1
0	14360	2556	5
0	14417	2567	1
0	14429	2569	1
0	14436	2570	1
0	14460	2573	1
0	14472	2574	1
0	14484	2575	1
0	14495	2576	1
0	14530	2582	1
0	14537	2583	1
0	14583	2590	1
0	14593	2591	1
0	14613	2593	1
0	14624	2594	2
0	14634	2595	2
0	14645	2596	1
0	14655	2597	1
0	14665	2598	1
0	14680	2600	1
0	14704	2603	1
0	14730	2608	5
0	14747	2610	1
0	14757	2611	1
0	14851	2632	1
0	14867	2635	1
0	14889	2640	1
0	14899	2641	1
0	14909	2643	1
0	14916	2644	2
0	14924	2645	2
0	14933	2646	2
0	14941	2647	3
0	14983	2654	1
0	15017	2658	1
0	15028	2659	1
0	15039	2660	1
0	15082	2669	1
0	15101	2672	1
0	15110	2674	1
0	15158	2685	1
0	15190	2690	6
0	15200	2691	1
0	15207	2692	1
0	15216	2694	1
0	15229	2696	1
0	15257	2701	1
0	15267	2702	2
0	15275	2703	3
0	15281	2704	3
0	15288	2705	1
0	15299	2707	1
0	15314	2708	1
0	15339	2711	1
0	15350	2712	1
0	15368	2714	1
0	15379	2715	1
0	15386	2716	2
0	15392	2717	2
0	15426	2724	1
0	15433	2725	1
0	15460	2730	2
0	15470	2731	2
0	15496	2734	1
0	15506	2735	2
0	15529	2741	1
0	15547	2744	1
0	15561	2746	1
0	15598	2751	1
0	15612	2754	1
0	15622	2755	1
0	15662	2764	1
0	15682	2770	1
0	15710	2773	1
0	15722	2774	1
0	15741	2776	1
0	15782	2783	1
0	15808	2792	1
0	15824	2795	1
0	15869	2804	1
0	15888	2807	1
0	15912	2816	1
0	15944	2822	1
0	15957	2826	1
0	15969	2828	1
0	15989	2830	1
0	16006	2831	2
0	16016	2832	3
0	16052	2837	1
0	16077	2841	1
0	16086	2843	1
0	16093	2844	1
0	16104	2847	1
0	16127	2850	1
0	16148	2854	1
0	16163	2857	1
0	16203	2864	1
0	16210	2865	1
0	16225	2870	1
0	16232	2871	1
0	16300	2886	1
0	16325	2891	6
0	16344	2894	1
0	16353	2896	1
0	16360	2897	1
0	16414	2908	1
0	16473	2921	1
0	16486	2925	1
0	16528	2931	1
0	16538	2932	2
0	16554	2934	1
0	16569	2936	1
0	16575	2937	2
0	16591	2940	1
0	16609	2943	1
0	16623	2945	1
0	16655	2949	1
0	16661	2950	2
0	16668	2951	1
0	16675	2952	1
0	16684	2954	1
0	16718	2959	5
0	16729	2960	3
0	16735	2961	2
0	16745	2962	3
0	16786	2972	1
0	16818	2977	1
0	16869	2987	1
0	16875	2988	2
0	16884	2989	3
0	16892	2990	4
0	16899	2991	1
0	16912	2995	1
0	16920	2996	1
0	16930	2997	2
0	16956	3004	1
0	16962	3005	2
0	16973	3008	1
0	16981	3009	1
0	16991	3010	2
0	17004	3011	2
0	17031	3016	6
0	17041	3017	4
0	17052	3018	1
0	17064	3020	1
0	17075	3021	2
0	17086	3022	2
0	17094	3023	2
0	17108	3025	1
0	17144	3033	1
0	17162	3037	1
0	17171	3039	1
0	17208	3045	1
0	17235	3050	1
0	17249	3052	1
0	17267	3057	1
0	17277	3058	1
0	17288	3060	1
0	17329	3065	1
0	17339	3066	2
0	17357	3068	1
0	17388	3073	5
0	17399	3074	2
0	17411	3075	1
0	17432	3078	1
0	17442	3079	1
0	17456	3081	1
0	17463	3082	1
0	17483	3087	1
0	17492	3089	1
0	17510	3093	1
0	17567	3105	1
0	17578	3106	1
0	17610	3113	1
0	17640	3120	1
0	17646	3121	2
0	17663	3124	1
0	17670	3125	2
0	17680	3126	2
0	17719	3132	1
0	17769	3140	1
0	17802	3145	5
0	17811	3146	5
0	17817	3147	6
0	17823	3148	6
0	17829	3149	7
0	17835	3150	6
0	17846	3153	1
0	17871	3158	1
0	17889	3162	1
0	17913	3165	1
0	17924	3166	2
0	17940	3168	1
0	17949	3169	2
0	17956	3170	3
0	17962	3171	2
0	17972	3172	1
0	17983	3174	1
0	18000	3176	1
0	18021	3178	1
0	18044	3181	1
0	18070	3186	4
0	18080	3187	5
0	18094	3188	5
0	18106	3189	2
0	18117	3190	2
0	18128	3191	3
0	18168	3196	1
0	18182	3197	2
0	18192	3198	2
0	18203	3199	3
0	18213	3200	2
0	18232	3202	1
0	18262	3207	1
0	18268	3208	2
0	18274	3209	3
0	18284	3210	1
0	18302	3213	1
0	18330	3219	1
0	18341	3220	2
0	18358	3222	1
0	18399	3231	1
0	18433	3240	1
0	18440	3241	2
0	18450	3242	2
0	18485	3249	1
0	18492	3250	1
0	18576	3267	1
0	18595	3274	1
0	18619	3279	1
0	18629	3280	2
0	18639	3281	1
0	18661	3284	1
0	18670	3285	2
0	18696	3290	1
0	18744	3297	1
0	18760	3299	1
0	18767	3300	1
0	18774	3301	1
0	18790	3304	1
0	18817	3310	1
0	18856	3315	5
0	18879	3319	1
0	18890	3320	2
0	18903	3321	1
0	18943	3326	1
0	18969	3330	1
0	18975	3331	2
0	18998	3335	1
0	19035	3346	1
0	19048	3348	1
0	19065	3350	1
0	19112	3357	1
0	19123	3360	1
0	19134	3362	1
0	19153	3365	1
0	19188	3374	1
0	19200	3376	1
0	19214	3378	1
0	19256	3389	1
0	19276	3394	1
0	19305	3399	2
0	19326	3402	1
0	19358	3407	1
0	19372	3409	1
0	19394	3415	1
0	19430	3422	1
0	19469	3430	1
0	19489	3434	1
0	19501	3436	1
0	19511	3437	1
0	19524	3440	1
0	19550	3444	1
0	19575	3447	1
0	19618	3453	1
0	19631	3454	1
0	19663	3458	1
0	19706	3464	1
0	19723	3466	1
0	19742	3469	1
0	19762	3474	1
0	19794	3484	1
0	19803	3485	2
0	19816	3487	1
0	19829	3489	1
0	19839	3490	2
0	19848	3491	2
0	19855	3492	2
0	19861	3493	2
0	19868	3494	1
0	19879	3497	1
0	19886	3498	1
0	19893	3499	1
0	19907	3502	1
0	19916	3503	2
0	19930	3505	1
0	19949	3508	1
0	19960	3509	1
0	19972	3511	1
0	19988	3514	1
0	20014	3519	1
0	20037	3524	6
0	20043	3525	6
0	20049	3526	7
0	20055	3527	5
0	20062	3528	1
0	20073	3530	1
0	20087	3532	1
0	20099	3534	1
0	20110	3536	1
0	20124	3539	1
0	20135	3540	1
0	20159	3544	1
0	20166	3545	1
0	20174	3546	1
0	20180	3547	2
0	20191	3549	1
0	20203	3551	1
0	20222	3554	1
0	20242	3556	1
0	20262	3558	1
0	20293	3563	6
0	20305	3564	7
0	20316	3565	7
0	20325	3566	6
0	20331	3567	3
0	20340	3569	1
0	20347	3570	1
0	20374	3575	1
0	20392	3580	1
0	20400	3581	1
0	20406	3582	2
0	20465	3593	1
0	20476	3594	1
0	20482	3595	2
0	20493	3598	1
0	20513	3602	1
0	20531	3607	1
0	20555	3613	1
0	20578	3615	1
0	20602	3618	1
0	20642	3623	2
0	20654	3624	1
0	20665	3625	2
0	20691	3631	1
0	20701	3632	2
0	20712	3633	2
0	20736	3639	1
0	20779	3652	1
0	20789	3653	1
0	20814	3658	1
0	20821	3659	1
0	20834	3663	1
0	20863	3670	1
0	20878	3674	1
0	20888	3675	1
0	20913	3679	1
0	20957	3687	1
0	20965	3688	1
0	20971	3689	2
0	20992	3692	1
0	21013	3697	5
0	21022	3699	1
0	21046	3702	1
0	21055	3703	2
0	21066	3705	1
0	21076	3706	1
0	21087	3709	1
0	21120	3718	1
0	21136	3720	1
0	21149	3721	1
0	21160	3722	1
0	21176	3726	1
0	21206	3735	1
0	21250	3742	1
0	21262	3743	1
0	21292	3749	1
0	21306	3752	1
0	21315	3753	2
0	21328	3756	1
0	21338	3757	1
0	21355	3762	5
0	21361	3763	4
0	21371	3765	1
0	21377	3766	2
0	21387	3767	1
0	21410	3770	1
0	21419	3772	1
0	21437	3776	1
0	21454	3778	1
0	21490	3784	1
0	21518	3787	1
0	21543	3790	1
0	21581	3794	1
0	21605	3797	1
0	21616	3798	1
0	21628	3799	1
0	21659	3803	1
0	21678	3805	1
0	21689	3806	2
0	21710	3809	1
0	21744	3814	4
0	21753	3816	1
0	21763	3818	1
0	21770	3819	2
0	21776	3820	2
0	21814	3829	1
0	21823	3831	1
0	21843	3836	1
0	21854	3839	1
0	21861	3840	1
0	21870	3842	1
0	21883	3845	1
0	21893	3846	1
0	21911	3850	1
0	21918	3851	1
0	21929	3854	1
0	21937	3855	1
0	21947	3856	2
0	21955	3857	2
0	21975	3860	1
0	22006	3866	1
0	22022	3870	1
0	22042	3874	1
0	22060	3878	1
0	22075	3880	1
0	22112	3885	1
0	22133	3888	1
0	22166	3897	1
0	22183	3900	1
0	22189	3901	2
0	22204	3906	1
0	22220	3909	1
0	22238	3913	1
0	22245	3914	1
0	22255	3915	1
0	22275	3917	1
0	22315	3924	1
0	22322	3925	1
0	22451	3946	1
0	22477	3950	1
0	22510	3955	5
0	22520	3956	5
0	22529	3957	6
0	22535	3958	3
0	22544	3959	3
0	22560	3961	1
0	22570	3962	1
0	22581	3964	1
0	22620	3972	1
0	22652	3977	1
0	22659	3978	1
0	22712	3994	1
0	22723	3995	2
0	22733	3996	2
0	22742	3997	1
0	22752	3998	1
0	22807	4007	1
0	22814	4008	1
0	22824	4009	1
0	22833	4010	1
0	22855	4018	1
0	22862	4019	1
0	22876	4021	1
0	22899	4026	1
0	22913	4027	1
0	22923	4028	2
0	22947	4031	1
0	22953	4032	2
0	22976	4035	1
0	22988	4037	1
0	23006	4040	1
0	23087	4059	1
0	23107	4064	1
0	23125	4070	1
0	23134	4071	2
0	23149	4075	1
0	23156	4076	1
0	23163	4077	1
0	23171	4078	1
0	23177	4079	2
0	23193	4084	3
0	23237	4092	1
0	23288	4103	1
0	23298	4104	1
0	23333	4110	1
0	23372	4116	1
0	23399	4121	1
0	23411	4123	1
0	23436	4129	1
0	23480	4135	1
0	23487	4136	1
0	23496	4138	1
0	23515	4142	1
0	23522	4143	2
0	23528	4144	2
0	23550	4149	1
0	23560	4150	1
0	23569	4152	1
0	23590	4155	1
0	23599	4157	1
0	23618	4162	3
0	23627	4163	4
0	23642	4165	1
0	23650	4166	2
0	23656	4167	2
0	23665	4168	3
0	23685	4172	1
0	23703	4174	1
0	23736	4178	1
0	23747	4179	2
0	23868	4202	1
0	23891	4205	1
0	23904	4209	1
0	23930	4213	1
0	23942	4214	1
0	23960	4216	1
0	24028	4230	1
0	24081	4251	1
0	24165	4272	1
0	24210	4282	1
0	24266	4292	1
0	24282	4295	1
0	24298	4298	1
0	24386	4319	1
0	24392	4320	2
0	24400	4321	1
0	24406	4322	2
0	24417	4325	1
0	24430	4329	1
0	24437	4330	1
0	24444	4331	1
0	24461	4333	1
0	24477	4335	1
0	24486	4337	1
0	24499	4341	1
0	24508	4343	1
0	24536	4348	1
0	24554	4350	1
0	24568	4352	1
0	24581	4354	1
0	24608	4359	6
0	24615	4360	3
0	24621	4361	3
0	24628	4362	3
0	24639	4363	2
0	24655	4365	1
0	24674	4367	1
0	24698	4370	1
0	24705	4371	1
0	24725	4376	1
0	24757	4380	1
0	24774	4382	1
0	24791	4385	1
0	24802	4386	2
0	24821	4388	1
0	24840	4391	1
0	24849	4393	1
0	24856	4394	1
0	24863	4395	1
0	24870	4396	1
0	24886	4401	3
0	24893	4402	1
0	24907	4406	1
0	24915	4407	2
0	24921	4408	2
0	24927	4409	3
0	24938	4410	1
0	24951	4411	1
0	25009	4421	1
0	25018	4422	2
0	25025	4423	1
0	25032	4424	1
0	25039	4425	1
0	25055	4427	1
0	25068	4428	1
0	25077	4429	2
0	25088	4431	1
0	25098	4432	1
0	25110	4433	1
0	25135	4437	1
0	25161	4442	4
0	25179	4447	1
0	25213	4456	1
0	25223	4457	2
0	25235	4458	2
0	25243	4459	2
0	25253	4461	1
0	25259	4462	2
0	25272	4466	1
0	25284	4468	1
0	25293	4469	2
0	25302	4471	1
0	25324	4476	1
0	25341	4478	1
0	25353	4479	1
0	25378	4483	1
0	25391	4484	1
0	25417	4491	1
0	25426	4493	1
0	25433	4494	1
0	25470	4501	1
0	25480	4502	1
0	25487	4503	1
0	25533	4514	1
0	25544	4515	1
0	25594	4523	1
0	25600	4524	2
0	25607	4525	3
0	25616	4526	2
0	25629	4529	1
0	25656	4534	1
0	25674	4536	1
0	25680	4537	2
0	25691	4539	1
0	25701	4540	1
0	25710	4542	1
0	25726	4547	1
0	25732	4548	2
0	25746	4551	1
0	25766	4555	1
0	25794	4560	4
0	25804	4561	5
0	25814	4562	5
0	25826	4564	1
0	25833	4565	2
0	25839	4566	2
0	25863	4570	1
0	25869	4571	2
0	25879	4572	1
0	25892	4573	1
0	25913	4576	1
0	25925	4577	1
0	25951	4580	1
0	25973	4583	1
0	26003	4588	1
0	26019	4590	1
0	26028	4591	2
0	26036	4592	3
0	26089	4601	1
0	26115	4605	1
0	26143	4610	6
0	26150	4611	1
0	26170	4615	1
0	26195	4620	1
0	26253	4628	1
0	26264	4629	2
0	26302	4637	1
0	26333	4641	1
0	26374	4648	1
0	26390	4651	1
0	26399	4653	1
0	26414	4658	1
0	26432	4662	1
0	26441	4664	1
0	26490	4676	1
0	26518	4685	1
0	26527	4687	1
0	26537	4688	1
0	26554	4692	1
0	26624	4703	1
0	26642	4708	5
0	26648	4709	5
0	26654	4710	4
0	26665	4713	1
0	26672	4714	1
0	26683	4716	1
0	26697	4719	1
0	26708	4722	1
0	26718	4723	1
0	26727	4724	1
0	26734	4725	1
0	26761	4730	1
0	26771	4731	1
0	26778	4732	1
0	26843	4742	1
0	26854	4745	1
0	26861	4746	1
0	26874	4750	1
0	26887	4754	1
0	26897	4755	1
0	26948	4769	1
0	26983	4774	1
0	26991	4775	1
0	27000	4776	2
0	27016	4778	1
0	27037	4785	1
0	27049	4787	1
0	27058	4789	1
0	27081	4793	1
0	27101	4796	1
0	27112	4797	1
0	27132	4800	1
0	27158	4809	1
0	27165	4810	1
0	27227	4821	1
0	27238	4824	1
0	27245	4825	1
0	27256	4828	1
0	27279	4832	1
0	27308	4837	1
0	27350	4842	5
0	27360	4843	5
0	27373	4844	5
0	27384	4845	2
0	27425	4856	1
0	27483	4871	1
0	27492	4873	1
0	27499	4874	1
0	27522	4878	1
0	27561	4884	1
0	27571	4885	1
0	27630	4895	1
0	27640	4896	2
0	27671	4900	1
0	27692	4904	1
0	27703	4905	1
0	27725	4909	1
0	27731	4910	2
0	27746	4915	1
0	27771	4920	1
0	27794	4925	5
0	27811	4927	1
0	27820	4929	1
0	27837	4933	1
0	27864	4936	1
0	27875	4937	1
0	27921	4947	1
0	27932	4948	1
0	27941	4949	2
0	27950	4950	2
0	27969	4955	1
0	27979	4956	1
0	28006	4961	1
0	28027	4964	1
0	28060	4970	1
0	28100	4978	1
0	28118	4983	1
0	28132	4985	1
0	28139	4986	1
0	28149	4987	1
0	28167	4992	3
0	28203	4999	1
0	28213	5000	1
1	2334	407	1
1	2334	407	0
1	2358	414	1
1	2358	414	0
1	2363	415	1
1	2370	416	2
1	2378	417	3
1	2386	419	2
1	2387	419	3
1	2388	419	4
1	2394	420	3
1	2399	421	4
1	2401	421	3
1	2408	422	2
1	2418	423	1
1	2426	424	0
1	2433	425	1
1	2437	425	0
1	2444	426	1
1	2445	426	2
1	2449	426	1
1	2456	427	0
1	2502	434	1
1	2502	434	0
1	2565	452	1
1	2565	452	0
1	2605	462	1
1	2605	462	0
1	2621	466	1
1	2621	466	0
1	2645	472	1
1	2645	472	0
1	2650	473	1
1	2652	473	0
1	2657	474	1
1	2659	474	0
1	2664	475	1
1	2665	475	2
1	2670	475	1
1	2680	476	0
1	2715	482	1
1	2715	482	0
1	2716	482	1
1	2726	483	0
1	2765	494	1
1	2765	494	0
1	2766	494	1
1	2767	494	2
1	2776	495	1
1	2783	496	2
1	2787	496	1
1	2797	497	0
1	2821	502	1
1	2821	502	0
1	2829	503	1
1	2831	503	0
1	2858	513	1
1	2858	513	0
1	2878	518	1
1	2878	518	0
1	2887	519	1
1	2890	519	0
1	2946	530	1
1	2946	530	0
1	2963	533	1
1	2963	533	0
1	2974	536	1
1	2974	536	0
1	3005	544	1
1	3005	544	0
1	3006	544	1
1	3011	545	2
1	3014	545	1
1	3024	546	0
1	3049	552	1
1	3049	552	0
1	3080	559	1
1	3080	559	0
1	3096	563	1
1	3096	563	0
1	3109	566	1
1	3109	566	0
1	3117	567	1
1	3120	567	0
1	3149	573	1
1	3149	573	0
1	3162	577	1
1	3162	577	0
1	3163	577	1
1	3169	578	0
1	3199	584	1
1	3199	584	0
1	3215	586	1
1	3215	586	0
1	3225	587	1
1	3227	587	0
1	3244	589	1
1	3244	589	0
1	3265	594	1
1	3265	594	0
1	3290	597	1
1	3290	597	0
1	3316	604	1
1	3316	604	0
1	3325	606	1
1	3325	606	0
1	3334	608	1
1	3334	608	0
1	3335	608	1
1	3343	609	2
1	3345	609	1
1	3353	610	0
1	3364	613	1
1	3364	613	0
1	3387	622	1
1	3387	622	0
1	3414	628	1
1	3414	628	0
1	3415	628	1
1	3421	629	0
1	3426	630	1
1	3428	630	0
1	3437	632	1
1	3437	632	0
1	3442	633	1
1	3458	637	0
1	3497	642	1
1	3497	642	0
1	3521	646	1
1	3521	646	0
1	3530	648	1
1	3530	648	0
1	3535	649	1
1	3537	649	0
1	3550	653	1
1	3550	653	0
1	3569	656	1
1	3569	656	0
1	3586	661	1
1	3586	661	0
1	3597	664	1
1	3597	664	0
1	3644	673	1
1	3644	673	0
1	3667	679	1
1	3667	679	0
1	3695	684	1
1	3695	684	0
1	3696	684	1
1	3697	684	2
1	3707	685	1
1	3717	686	0
1	3735	688	1
1	3735	688	0
1	3756	691	1
1	3756	691	0
1	3757	691	1
1	3763	692	0
1	3786	697	1
1	3786	697	0
1	3801	701	1
1	3801	701	0
1	3839	706	1
1	3839	706	0
1	3866	710	1
1	3872	711	0
1	3881	713	1
1	3881	713	0
1	3900	715	1
1	3900	715	0
1	3948	724	1
1	3948	724	0
1	3957	725	1
1	3960	725	0
1	3969	726	1
1	3971	726	0
1	3990	730	1
1	3990	730	0
1	3995	731	1
1	3998	731	0
1	4021	734	1
1	4021	734	0
1	4028	735	1
1	4030	735	0
1	4066	743	1
1	4066	743	0
1	4081	748	1
1	4081	748	0
1	4092	751	1
1	4092	751	0
1	4101	753	1
1	4101	753	0
1	4106	754	1
1	4107	754	2
1	4108	754	3
1	4110	754	2
1	4115	755	3
1	4117	755	2
1	4123	756	1
1	4128	757	2
1	4131	757	1
1	4138	758	2
1	4139	758	3
1	4144	758	2
1	4154	759	1
1	4164	762	2
1	4167	763	3
1	4171	764	2
1	4177	765	1
1	4183	766	0
1	4188	767	1
1	4191	767	0
1	4198	768	1
1	4203	768	0
1	4231	775	1
1	4231	775	0
1	4236	776	1
1	4238	776	0
1	4284	785	1
1	4284	785	0
1	4291	786	1
1	4293	786	0
1	4298	787	1
1	4300	787	0
1	4318	791	1
1	4318	791	0
1	4319	791	1
1	4325	792	0
1	4330	793	1
1	4332	793	0
1	4359	799	1
1	4359	799	0
1	4371	801	1
1	4371	801	0
1	4391	805	1
1	4391	805	0
1	4396	806	1
1	4398	806	0
1	4469	819	1
1	4469	819	0
1	4478	821	1
1	4478	821	0
1	4491	823	1
1	4491	823	0
1	4500	824	1
1	4501	824	2
1	4519	828	1
1	4520	828	2
1	4530	829	1
1	4540	830	0
1	4553	833	1
1	4553	833	0
1	4570	839	1
1	4570	839	0
1	4636	857	1
1	4636	857	0
1	4662	861	1
1	4662	861	0
1	4684	866	1
1	4684	866	0
1	4756	882	1
1	4756	882	0
1	4764	883	1
1	4767	883	0
1	4776	884	1
1	4779	884	0
1	4794	886	1
1	4794	886	0
1	4819	891	1
1	4819	891	0
1	4866	902	1
1	4866	902	0
1	4898	908	1
1	4898	908	0
1	4899	908	1
1	4909	909	2
1	4910	909	3
1	4912	909	2
1	4921	910	3
1	4923	910	2
1	4933	911	1
1	4942	912	0
1	4949	913	1
1	4953	913	0
1	4968	917	1
1	4977	918	0
1	4978	918	1
1	4987	919	0
1	5021	924	1
1	5021	924	0
1	5022	924	1
1	5023	924	2
1	5033	925	1
1	5043	926	0
1	5050	927	1
1	5052	927	0
1	5082	935	1
1	5082	935	0
1	5100	937	1
1	5100	937	0
1	5115	941	1
1	5115	941	0
1	5146	949	1
1	5146	949	0
1	5155	951	1
1	5155	951	0
1	5156	951	1
1	5157	951	2
1	5163	952	1
1	5169	953	0
1	5201	959	1
1	5201	959	0
1	5224	964	1
1	5224	964	0
1	5284	973	1
1	5284	973	0
1	5289	974	1
1	5291	974	0
1	5310	977	1
1	5310	977	0
1	5317	978	1
1	5319	978	0
1	5328	980	1
1	5328	980	0
1	5348	983	1
1	5359	985	0
1	5367	986	1
1	5369	986	0
1	5436	996	1
1	5436	996	0
1	5467	1000	1
1	5467	1000	0
1	5474	1001	1
1	5476	1001	0
1	5536	1016	1
1	5536	1016	0
1	5582	1025	1
1	5582	1025	0
1	5589	1026	1
1	5592	1026	0
1	5599	1027	1
1	5603	1027	0
1	5608	1028	1
1	5612	1028	0
1	5636	1031	1
1	5636	1031	0
1	5645	1032	1
1	5646	1032	2
1	5649	1032	1
1	5660	1033	0
1	5669	1034	1
1	5671	1034	0
1	5701	1039	1
1	5701	1039	0
1	5733	1047	1
1	5733	1047	0
1	5741	1048	1
1	5744	1048	0
1	5801	1057	1
1	5801	1057	0
1	5812	1059	1
1	5812	1059	0
1	5817	1060	1
1	5819	1060	0
1	5845	1065	1
1	5845	1065	0
1	5854	1067	1
1	5854	1067	0
1	5855	1067	1
1	5861	1068	0
1	5881	1073	1
1	5881	1073	0
1	5914	1078	1
1	5914	1078	0
1	5929	1082	1
1	5929	1082	0
1	5954	1087	1
1	5954	1087	0
1	5981	1093	1
1	5981	1093	0
1	5996	1098	1
1	5996	1098	0
1	6001	1099	1
1	6003	1099	0
1	6008	1100	1
1	6010	1100	0
1	6021	1103	1
1	6021	1103	0
1	6022	1103	1
1	6030	1104	2
1	6032	1104	1
1	6040	1105	0
1	6051	1108	1
1	6051	1108	0
1	6077	1112	1
1	6077	1112	0
1	6095	1115	1
1	6095	1115	0
1	6100	1116	1
1	6102	1116	0
1	6147	1127	1
1	6147	1127	0
1	6167	1131	1
1	6167	1131	0
1	6172	1132	1
1	6185	1135	2
1	6189	1136	1
1	6190	1136	2
1	6199	1137	1
1	6207	1138	0
1	6218	1141	1
1	6218	1141	0
1	6229	1144	1
1	6229	1144	0
1	6250	1148	1
1	6250	1148	0
1	6257	1149	1
1	6259	1149	0
1	6264	1150	1
1	6266	1150	0
1	6271	1151	1
1	6273	1151	0
1	6278	1152	1
1	6279	1152	2
1	6282	1152	1
1	6289	1153	2
1	6294	1153	1
1	6301	1154	2
1	6302	1154	3
1	6306	1154	2
1	6312	1155	1
1	6321	1156	0
1	6337	1158	1
1	6337	1158	0
1	6346	1159	1
1	6349	1159	0
1	6358	1160	1
1	6361	1160	0
1	6386	1163	1
1	6386	1163	0
1	6387	1163	1
1	6398	1164	0
1	6413	1166	1
1	6413	1166	0
1	6414	1166	1
1	6444	1171	0
1	6485	1179	1
1	6485	1179	0
1	6494	1181	1
1	6494	1181	0
1	6523	1189	1
1	6523	1189	0
1	6524	1189	1
1	6532	1190	0
1	6541	1192	1
1	6541	1192	0
1	6546	1193	1
1	6548	1193	0
1	6562	1196	1
1	6562	1196	0
1	6572	1197	1
1	6575	1197	0
1	6590	1199	1
1	6590	1199	0
1	6599	1201	1
1	6599	1201	0
1	6637	1210	1
1	6637	1210	0
1	6707	1225	1
1	6707	1225	0
1	6708	1225	1
1	6713	1226	2
1	6715	1226	1
1	6721	1227	0
1	6745	1234	1
1	6745	1234	0
1	6769	1241	1
1	6769	1241	0
1	6865	1264	1
1	6865	1264	0
1	6889	1267	1
1	6889	1267	0
1	6934	1276	1
1	6934	1276	0
1	6944	1279	1
1	6947	1280	2
1	6951	1281	1
1	6957	1282	0
1	6984	1286	1
1	6984	1286	0
1	7010	1291	1
1	7010	1291	0
1	7048	1300	1
1	7048	1300	0
1	7059	1303	1
1	7059	1303	0
1	7060	1303	1
1	7068	1304	2
1	7071	1304	1
1	7081	1305	0
1	7112	1313	1
1	7112	1313	0
1	7119	1314	1
1	7120	1314	2
1	7122	1314	1
1	7128	1315	0
1	7150	1321	1
1	7150	1321	0
1	7164	1324	1
1	7164	1324	0
1	7204	1333	1
1	7204	1333	0
1	7233	1340	1
1	7233	1340	0
1	7244	1343	1
1	7244	1343	0
1	7270	1351	1
1	7270	1351	0
1	7284	1353	1
1	7284	1353	0
1	7301	1355	1
1	7301	1355	0
1	7308	1356	1
1	7310	1356	0
1	7315	1357	1
1	7331	1361	0
1	7351	1366	1
1	7351	1366	0
1	7370	1368	1
1	7370	1368	0
1	7379	1369	1
1	7382	1369	0
1	7417	1375	1
1	7417	1375	0
1	7433	1377	1
1	7433	1377	0
1	7487	1385	1
1	7487	1385	0
1	7503	1388	1
1	7503	1388	0
1	7516	1391	1
1	7516	1391	0
1	7525	1393	1
1	7525	1393	0
1	7526	1393	1
1	7531	1394	2
1	7533	1394	1
1	7539	1395	0
1	7595	1408	1
1	7595	1408	0
1	7596	1408	1
1	7603	1409	0
1	7616	1411	1
1	7616	1411	0
1	7630	1413	1
1	7630	1413	0
1	7640	1414	1
1	7641	1414	2
1	7643	1414	1
1	7653	1415	0
1	7668	1417	1
1	7668	1417	0
1	7673	1418	1
1	7674	1418	2
1	7676	1418	1
1	7686	1421	2
1	7687	1421	3
1	7693	1423	2
1	7702	1424	1
1	7710	1425	0
1	7715	1426	1
1	7717	1426	0