version 3
run Experimentos-923-20260514-09:21:43-8044
attr configname Experimentos
attr datetime 20260514-09:21:43
attr datetimef 20260514-092143
attr experiment Experimentos
attr inifile TwoQueues.ini
attr iterationvars "$p=0.7, $q=0.3, $Y=30, $m=4"
attr iterationvarsd p=0.7/q=0.3/Y=30/m=4
attr iterationvarsf p=0.7,q=0.3,Y=30,m=4-
attr measurement "$p=0.7, $q=0.3, $Y=30, $m=4"
attr network TwoQueues
attr processid 8044
attr repetition 3
attr replication #3
attr resultdir results
attr runnumber 923
attr seedset 923
itervar Y 30
itervar m 4
itervar p 0.7
itervar q 0.3
config description "Barrido completo de parámetros Proyecto 12"
config **.source1.p 0.7
config **.source1.q 0.2
config **.source2.p 0.6
config **.source2.q 0.3
config **.serverWithMaintenance.Y 30
config **.serverWithMaintenance.m 4
config network TwoQueues
config cpu-time-limit 5000s
config sim-time-limit 5000s
config warmup-period 400s
config repeat 20
config output-scalar-file results/Experimentos-p=0.7,q=0.3,Y=30,m=4--#3.sca
config output-vector-file results/Experimentos-p=0.7,q=0.3,Y=30,m=4--#3.vec
config **.vector-recording true

vector 0 TwoQueues.serverWithMaintenance residenceTime2:vector ETV
attr recordingmode vector
attr source delay2
attr title "Residence Time Class 2"
vector 1 TwoQueues.queue2 queueLengthStats:vector ETV
attr recordingmode vector
attr source qlen
attr title "Average Queue Length"
vector 2 TwoQueues.queue1 queueLengthStats:vector ETV
attr recordingmode vector
attr source qlen
attr title "Average Queue Length"
vector 3 TwoQueues.server residenceTime1:vector ETV
attr recordingmode vector
attr source delay1
attr title "Residence Time Class 1"
vector 4 TwoQueues.server throughputStats1:vector ETV
attr recordingmode vector
attr source throughput1
attr title "Throughput Class 1"
0	2461	402	5
0	2472	403	5
0	2483	404	6
0	2495	405	2
0	2508	406	1
0	2522	407	2
0	2532	408	2
0	2626	421	1
0	2635	422	2
0	2645	423	1
0	2670	427	1
0	2680	428	1
0	2710	433	1
0	2753	446	1
0	2766	448	1
0	2776	449	2
0	2797	452	1
0	2808	453	1
0	2814	454	2
0	2821	455	1
0	2841	460	1
0	2871	465	1
0	2890	469	1
0	2897	470	2
0	2903	471	2
0	2952	480	1
0	2958	481	2
0	2978	486	1
0	3003	491	1
0	3038	496	1
0	3066	501	4
0	3076	502	1
0	3090	504	1
0	3104	508	1
0	3110	509	2
0	3117	510	1
0	3127	511	1
0	3136	512	1
0	3183	523	1
0	3190	524	1
0	3250	534	1
0	3259	536	1
0	3293	543	1
0	3318	548	1
0	3364	556	1
0	3391	562	1
0	3402	563	1
0	3456	573	1
0	3472	575	1
0	3479	576	1
0	3505	580	1
0	3516	581	1
0	3544	587	1
0	3550	588	2
0	3559	589	3
0	3568	590	4
0	3574	591	2
0	3588	593	1
0	3608	598	1
0	3624	601	1
0	3656	606	5
0	3662	607	3
0	3690	611	1
0	3705	616	1
0	3722	619	1
0	3731	620	2
0	3764	625	1
0	3770	626	2
0	3801	634	1
0	3855	642	1
0	3871	644	1
0	3891	649	1
0	3902	650	1
0	3915	651	2
0	3926	652	1
0	3982	667	1
0	3993	670	1
0	4003	671	1
0	4012	672	1
0	4019	673	1
0	4026	674	1
0	4035	676	1
0	4053	680	1
0	4075	686	1
0	4095	689	1
0	4117	692	1
0	4135	696	1
0	4142	697	1
0	4163	702	1
0	4169	703	2
0	4202	708	4
0	4208	709	3
0	4215	710	3
0	4221	711	2
0	4234	714	1
0	4261	720	1
0	4271	721	1
0	4288	726	1
0	4298	727	1
0	4321	730	1
0	4331	731	1
0	4349	734	1
0	4366	736	1
0	4373	737	1
0	4384	739	1
0	4394	740	1
0	4401	741	1
0	4421	745	1
0	4431	746	1
0	4467	753	1
0	4484	755	1
0	4498	757	1
0	4509	760	1
0	4545	768	1
0	4560	773	1
0	4614	785	1
0	4621	786	1
0	4644	790	1
0	4666	796	1
0	4694	801	1
0	4725	806	6
0	4732	807	6
0	4742	808	5
0	4752	809	5
0	4760	810	4
0	4774	812	1
0	4793	816	1
0	4799	817	2
0	4840	827	1
0	4847	828	2
0	4856	829	2
0	4877	835	1
0	4887	836	1
0	4911	840	1
0	4948	845	1
0	4982	851	1
0	5003	856	1
0	5009	857	2
0	5027	861	1
0	5041	863	1
0	5048	864	1
0	5068	867	1
0	5079	868	1
0	5095	870	1
0	5106	873	1
0	5115	875	1
0	5127	877	1
0	5145	879	1
0	5157	881	1
0	5171	883	1
0	5190	888	5
0	5200	889	2
0	5209	890	2
0	5272	900	1
0	5282	901	2
0	5293	902	1
0	5318	907	1
0	5337	909	1
0	5348	910	2
0	5355	911	2
0	5361	912	3
0	5367	913	3
0	5388	916	1
0	5401	919	1
0	5421	921	1
0	5451	925	1
0	5458	926	1
0	5465	927	1
0	5475	928	1
0	5506	934	1
0	5521	936	1
0	5533	937	1
0	5551	939	1
0	5561	940	1
0	5584	944	1
0	5595	945	1
0	5616	950	1
0	5632	953	1
0	5658	961	1
0	5676	964	1
0	5707	970	1
0	5794	985	1
0	5831	993	1
0	5842	994	1
0	5859	996	1
0	5909	1006	1
0	5930	1009	1
0	5955	1016	1
0	5965	1017	2
0	5989	1020	1
0	6031	1026	1
0	6050	1028	1
0	6077	1035	1
0	6102	1040	1
0	6109	1041	1
0	6116	1042	1
0	6160	1054	1
0	6167	1055	1
0	6203	1063	1
0	6214	1065	1
0	6220	1066	2
0	6229	1067	3
0	6238	1068	1
0	6247	1070	1
0	6350	1088	1
0	6362	1090	1
0	6437	1111	1
0	6455	1113	1
0	6473	1118	1
0	6488	1123	1
0	6521	1128	3
0	6527	1129	4
0	6537	1130	3
0	6558	1135	1
0	6568	1136	1
0	6586	1139	1
0	6602	1142	1
0	6645	1150	1
0	6655	1151	1
0	6686	1157	1
0	6697	1158	1
0	6716	1160	1
0	6728	1161	1
0	6746	1164	1
0	6786	1174	1
0	6808	1178	1
0	6830	1181	1
0	6837	1182	1
0	6862	1187	1
0	6871	1189	1
0	6914	1197	1
0	6928	1200	1
0	6938	1201	1
0	6961	1204	1
0	6971	1205	1
0	6993	1210	1
0	7047	1222	1
0	7074	1227	1
0	7095	1230	1
0	7121	1233	1
0	7149	1238	4
0	7159	1239	5
0	7165	1240	4
0	7171	1241	3
0	7202	1249	1
0	7221	1252	1
0	7248	1257	1
0	7290	1264	1
0	7303	1265	1
0	7313	1266	2
0	7327	1269	1
0	7347	1274	1
0	7366	1281	1
0	7375	1283	1
0	7448	1298	1
0	7459	1299	1
0	7469	1300	1
0	7479	1301	1
0	7565	1323	1
0	7583	1327	1
0	7617	1334	1
0	7630	1337	1
0	7649	1339	1
0	7663	1341	1
0	7675	1342	1
0	7688	1344	1
0	7694	1345	2
0	7716	1351	1
0	7743	1355	1
0	7772	1359	1
0	7795	1364	4
0	7801	1365	3
0	7808	1366	3
0	7818	1367	2
0	7826	1368	2
0	7836	1369	1
0	7860	1375	1
0	7871	1376	1
0	7903	1383	1
0	7913	1384	1
0	7983	1398	1
0	7998	1401	1
0	8007	1402	2
0	8058	1409	1
0	8069	1411	1
0	8086	1415	1
0	8093	1416	2
0	8099	1417	2
0	8110	1420	1
0	8171	1433	1
0	8178	1434	1
0	8189	1437	1
0	8196	1438	1
0	8203	1439	1
0	8214	1441	1
0	8224	1442	1
0	8231	1443	1
0	8254	1447	1
0	8282	1452	1
0	8301	1454	1
0	8330	1459	4
0	8336	1460	5
0	8371	1470	1
0	8386	1475	1
0	8393	1476	1
0	8402	1478	1
0	8416	1481	1
0	8442	1484	1
0	8454	1485	1
0	8473	1487	1
0	8491	1489	1
0	8516	1497	1
0	8522	1498	2
0	8538	1500	1
0	8557	1502	1
0	8567	1503	1
0	8577	1504	1
0	8586	1505	1
0	8593	1506	1
0	8604	1507	1
0	8612	1508	2
0	8670	1519	1
0	8680	1520	2
0	8689	1521	2
0	8695	1522	2
0	8718	1530	1
0	8744	1534	1
0	8755	1536	1
0	8765	1537	1
0	8785	1542	1
0	8827	1551	1
0	8865	1556	1
0	8875	1557	2
0	8913	1563	1
0	8920	1564	1
0	8939	1567	1
0	8949	1568	2
0	8956	1569	2
0	8962	1570	2
0	8969	1571	1
0	8993	1574	1
0	9004	1575	1
0	9016	1577	1
0	9045	1586	1
0	9054	1587	2
0	9084	1591	1
0	9116	1597	1
0	9123	1598	1
0	9149	1603	1
0	9156	1604	2
0	9162	1605	2
0	9172	1607	1
0	9178	1608	2
0	9185	1609	1
0	9203	1613	1
0	9224	1616	1
0	9235	1619	1
0	9254	1625	1
0	9268	1628	1
0	9285	1633	1
0	9308	1638	6
0	9314	1639	7
0	9320	1640	7
0	9330	1641	6
0	9342	1642	5
0	9354	1643	3
0	9364	1644	3
0	9375	1646	1
0	9414	1657	1
0	9445	1665	1
0	9471	1670	1
0	9480	1671	2
0	9489	1673	1
0	9504	1675	1
0	9510	1676	2
0	9519	1678	1
0	9596	1687	1
0	9627	1691	1
0	9637	1692	2
0	9650	1693	1
0	9674	1696	1
0	9728	1703	1
0	9740	1704	2
0	9798	1712	1
0	9835	1717	1
0	9846	1718	1
0	9856	1719	1
0	9879	1722	1
0	9896	1724	1
0	9907	1725	1
0	9926	1730	6
0	9938	1732	1
0	9949	1735	1
0	9981	1740	1
0	10039	1748	1
0	10050	1749	2
0	10059	1750	2
0	10066	1751	1
0	10077	1753	1
0	10085	1754	2
0	10093	1755	3
0	10099	1756	3
0	10105	1757	4
0	10114	1758	4
0	10122	1759	5
0	10132	1760	1
0	10154	1765	1
0	10162	1766	1
0	10168	1767	2
0	10179	1769	1
0	10191	1771	1
0	10200	1773	1
0	10290	1789	1
0	10299	1790	2
0	10335	1797	1
0	10353	1801	1
0	10365	1803	1
0	10396	1811	1
0	10434	1820	1
0	10446	1822	1
0	10469	1827	2
0	10479	1828	1
0	10488	1829	1
0	10502	1831	1
0	10568	1844	1
0	10607	1851	1
0	10626	1858	1
0	10685	1872	1
0	10693	1873	2
0	10701	1874	2
0	10710	1875	3
0	10718	1876	3
0	10724	1877	4
0	10739	1882	1
0	10755	1885	1
0	10805	1895	1
0	10816	1897	1
0	10828	1898	1
0	10852	1902	1
0	10864	1903	2
0	10904	1908	1
0	10945	1913	1
0	10974	1917	1
0	10990	1920	1
0	11015	1925	1
0	11042	1931	1
0	11064	1937	1
0	11071	1938	1
0	11085	1940	1
0	11092	1941	1
0	11123	1951	1
0	11155	1955	1
0	11167	1956	2
0	11178	1957	2
0	11187	1958	2
0	11202	1962	1
0	11221	1964	1
0	11282	1978	1
0	11296	1980	1
0	11307	1981	1
0	11322	1983	1
0	11353	1991	1
0	11395	2002	1
0	11404	2004	1
0	11412	2005	1
0	11418	2006	2
0	11452	2013	1
0	11478	2016	1
0	11502	2018	1
0	11513	2019	1
0	11537	2022	1
0	11548	2023	1
0	11567	2025	1
0	11578	2026	1
0	11605	2029	1
0	11618	2030	1
0	11628	2031	2
0	11639	2032	1
0	11650	2033	1
0	11661	2034	1
0	11693	2039	3
0	11704	2040	4
0	11716	2041	1
0	11758	2048	1
0	11798	2056	1
0	11810	2057	1
0	11828	2059	1
0	11841	2060	1
0	11853	2061	2
0	11864	2062	2
0	11875	2063	3
0	11892	2065	1
0	11907	2070	1
0	11916	2072	1
0	11927	2073	1
0	11942	2075	1
0	11951	2077	1
0	11962	2080	1
0	12001	2088	1
0	12036	2094	1
0	12046	2095	2
0	12054	2096	2
0	12126	2108	1
0	12154	2116	1
0	12199	2123	1
0	12207	2124	2
0	12217	2125	2
0	12225	2126	3
0	12231	2127	3
0	12244	2130	1
0	12276	2139	1
0	12305	2143	1
0	12315	2144	2
0	12323	2145	2
0	12351	2150	1
0	12379	2154	1
0	12474	2169	1
0	12486	2170	1
0	12495	2171	2
0	12502	2172	1
0	12524	2178	1
0	12540	2180	1
0	12552	2181	1
0	12565	2182	1
0	12659	2196	1
0	12692	2200	1
0	12718	2205	1
0	12725	2206	1
0	12737	2207	1
0	12747	2208	2
0	12786	2214	1
0	12802	2216	1
0	12881	2227	1
0	12891	2228	2
0	12912	2231	1
0	12930	2234	1
0	12942	2235	2
0	12975	2241	1
0	13034	2259	1
0	13052	2261	1
0	13087	2266	1
0	13118	2270	1
0	13136	2272	1
0	13181	2277	1
0	13198	2279	1
0	13217	2281	1
0	13230	2282	2
0	13254	2285	1
0	13265	2286	1
0	13278	2287	1
0	13288	2288	2
0	13325	2293	1
0	13381	2305	1
0	13441	2313	1
0	13452	2314	2
0	13483	2319	1
0	13492	2320	2
0	13572	2339	1
0	13605	2344	1
0	13615	2345	2
0	13621	2346	2
0	13628	2347	1
0	13638	2348	1
0	13673	2353	1
0	13689	2355	1
0	13696	2356	1
0	13705	2358	1
0	13757	2369	1
0	13770	2372	1
0	13784	2375	1
0	13805	2380	1
0	13844	2386	1
0	13855	2387	1
0	13864	2388	2
0	13883	2390	1
0	13892	2391	2
0	13908	2394	1
0	13932	2397	1
0	13963	2404	1
0	14016	2412	1
0	14030	2415	1
0	14046	2417	1
0	14056	2418	1
0	14065	2420	1
0	14079	2424	1
0	14088	2425	2
0	14109	2432	1
0	14127	2435	1
0	14186	2453	1
0	14233	2464	1
0	14309	2482	1
0	14320	2483	1
0	14349	2487	1
0	14367	2490	1
0	14381	2493	1
0	14399	2495	1
0	14410	2496	1
0	14437	2500	1
0	14447	2501	1
0	14454	2502	1
0	14476	2507	5
0	14486	2508	2
0	14494	2509	2
0	14501	2510	1
0	14519	2514	1
0	14539	2517	1
0	14551	2518	1
0	14621	2530	1
0	14632	2533	1
0	14694	2545	1
0	14706	2546	2
0	14717	2547	1
0	14731	2548	1
0	14744	2549	2
0	14754	2550	3
0	14768	2551	1
0	14794	2554	1
0	14806	2555	2
0	14815	2556	3
0	14822	2557	3
0	14828	2558	4
0	14834	2559	3
0	14841	2560	1
0	14857	2563	1
0	14898	2571	1
0	14912	2573	1
0	14921	2575	1
0	14950	2582	1
0	14960	2583	1
0	14980	2586	1
0	15010	2591	2
0	15018	2592	3
0	15024	2593	2
0	15030	2594	3
0	15071	2602	1
0	15103	2610	1
0	15109	2611	2
0	15135	2614	1
0	15145	2615	2
0	15165	2618	1
0	15177	2620	1
0	15187	2621	1
0	15203	2624	1
0	15226	2628	1
0	15237	2629	1
0	15247	2630	1
0	15258	2633	1
0	15267	2635	1
0	15281	2639	1
0	15288	2640	2
0	15294	2641	2
0	15315	2644	1
0	15325	2645	1
0	15338	2647	1
0	15344	2648	2
0	15350	2649	3
0	15380	2659	1
0	15399	2662	1
0	15410	2663	1
0	15429	2666	1
0	15450	2671	2
0	15462	2672	3
0	15473	2673	3
0	15484	2674	1
0	15500	2676	1
0	15509	2677	1
0	15515	2678	2
0	15522	2679	3
0	15528	2680	2
0	15537	2682	1
0	15563	2690	1
0	15603	2700	1
0	15622	2702	1
0	15632	2703	2
0	15644	2704	1
0	15662	2706	1
0	15680	2709	1
0	15691	2710	2
0	15726	2714	1
0	15752	2717	1
0	15770	2719	1
0	15789	2721	1
0	15874	2738	1
0	15899	2743	1
0	15910	2745	1
0	15929	2747	1
0	15945	2751	1
0	15952	2752	1
0	15973	2755	1
0	15998	2758	1
0	16023	2763	6
0	16034	2764	2
0	16058	2767	1
0	16065	2768	1
0	16074	2770	1
0	16093	2773	1
0	16104	2774	1
0	16114	2775	1
0	16125	2778	1
0	16132	2779	1
0	16163	2787	1
0	16172	2789	1
0	16181	2791	1
0	16189	2792	1
0	16195	2793	2
0	16226	2798	1
0	16232	2799	2
0	16241	2801	1
0	16251	2802	1
0	16261	2803	1
0	16270	2804	2
0	16280	2805	1
0	16291	2806	2
0	16302	2807	2
0	16314	2808	2
0	16363	2816	1
0	16373	2817	1
0	16393	2822	1
0	16434	2828	1
0	16444	2829	2
0	16471	2834	4
0	16497	2837	1
0	16515	2840	1
0	16523	2841	1
0	16530	2842	2
0	16539	2843	2
0	16550	2845	1
0	16575	2849	1
0	16599	2857	1
0	16610	2859	1
0	16644	2866	1
0	16667	2869	1
0	16693	2872	1
0	16732	2881	1
0	16741	2883	1
0	16752	2884	1
0	16764	2885	1
0	16773	2886	2
0	16782	2887	2
0	16798	2889	1
0	16805	2890	1
0	16820	2894	1
0	16830	2895	1
0	16839	2897	1
0	16855	2901	1
0	16867	2902	2
0	16889	2905	1
0	16899	2906	2
0	16911	2908	1
0	16918	2909	1
0	16949	2914	1
0	16965	2917	1
0	16975	2918	1
0	16986	2920	1
0	17011	2923	1
0	17021	2924	2
0	17048	2931	1
0	17066	2935	1
0	17089	2939	1
0	17110	2942	1
0	17122	2943	2
0	17132	2944	2
0	17159	2947	1
0	17168	2948	2
0	17177	2949	3
0	17189	2950	1
0	17210	2954	1
0	17219	2955	2
0	17239	2959	1
0	17251	2961	1
0	17260	2962	2
0	17270	2963	1
0	17307	2973	1
0	17321	2976	1
0	17347	2982	1
0	17372	2987	1
0	17382	2988	1
0	17410	2993	1
0	17430	2996	1
0	17450	2998	1
0	17488	3003	5
0	17498	3004	6
0	17507	3005	5
0	17514	3006	1
0	17565	3017	1
0	17591	3020	1
0	17603	3021	1
0	17620	3023	1
0	17632	3025	1
0	17653	3030	1
0	17662	3031	2
0	17689	3036	1
0	17710	3039	1
0	17734	3043	1
0	17744	3044	2
0	17764	3047	1
0	17800	3055	1
0	17826	3062	1
0	17833	3063	1
0	17845	3065	1
0	17854	3066	2
0	17861	3067	1
0	17870	3069	1
0	17877	3070	1
0	17884	3071	1
0	17906	3076	1
0	17918	3078	1
0	17926	3079	1
0	17932	3080	2
0	17939	3081	1
0	17972	3087	1
0	17983	3088	1
0	18005	3091	1
0	18014	3093	1
0	18024	3094	1
0	18033	3095	1
0	18051	3099	1
0	18066	3103	1
0	18076	3104	1
0	18097	3107	1
0	18122	3111	1
0	18132	3112	1
0	18146	3116	1
0	18152	3117	2
0	18159	3118	1
0	18183	3124	1
0	18195	3125	1
0	18237	3132	1
0	18266	3138	1
0	18280	3140	1
0	18294	3142	1
0	18300	3143	2
0	18310	3144	3
0	18321	3145	2
0	18330	3146	1
0	18348	3149	1
0	18363	3151	1
0	18416	3158	1
0	18445	3161	1
0	18469	3164	1
0	18498	3169	5
0	18505	3170	4
0	18514	3171	2
0	18521	3172	2
0	18531	3173	3
0	18541	3174	4
0	18549	3175	4
0	18565	3178	1
0	18587	3181	1
0	18596	3182	2
0	18602	3183	3
0	18609	3184	4
0	18615	3185	5
0	18624	3186	3
0	18637	3187	1
0	18683	3196	1
0	18695	3197	1
0	18709	3199	1
0	18719	3200	1
0	18743	3206	1
0	18750	3207	2
0	18756	3208	3
0	18764	3209	3
0	18770	3210	2
0	18776	3211	3
0	18803	3216	1
0	18823	3222	1
0	18851	3226	1
0	18864	3230	1
0	18902	3239	1
0	18931	3244	4
0	18937	3245	4
0	18944	3246	5
0	18950	3247	4
0	18959	3248	3
0	18990	3253	1
0	19014	3257	1
0	19032	3261	1
0	19043	3263	1
0	19057	3266	1
0	19068	3267	1
0	19077	3268	2
0	19086	3269	2
0	19134	3276	1
0	19170	3284	1
0	19210	3295	1
0	19266	3304	1
0	19277	3305	1
0	19287	3306	1
0	19346	3319	1
0	19363	3321	1
0	19373	3322	2
0	19431	3338	1
0	19438	3339	1
0	19464	3346	1
0	19478	3348	1
0	19497	3351	1
0	19515	3355	1
0	19535	3359	1
0	19557	3362	1
0	19591	3367	6
0	19597	3368	4
0	19636	3376	1
0	19645	3377	2
0	19652	3378	1
0	19689	3388	1
0	19711	3391	1
0	19731	3395	1
0	19750	3398	1
0	19766	3400	1
0	19805	3406	1
0	19844	3414	1
0	19875	3420	1
0	19912	3424	1
0	19922	3425	2
0	19959	3430	1
0	19972	3431	1
0	19989	3433	1
0	20033	3440	1
0	20053	3443	1
0	20059	3444	2
0	20069	3445	1
0	20081	3446	1
0	20094	3449	1
0	20128	3456	1
0	20135	3457	1
0	20147	3459	1
0	20165	3462	1
0	20201	3469	1
0	20217	3473	1
0	20258	3478	5
0	20267	3479	5
0	20276	3480	5
0	20284	3481	5
0	20291	3482	1
0	20309	3485	1
0	20321	3486	1
0	20338	3488	1
0	20348	3489	1
0	20357	3490	1
0	20369	3492	1
0	20380	3493	1
0	20390	3494	1
0	20400	3495	1
0	20419	3498	1
0	20425	3499	2
0	20436	3500	1
0	20469	3506	1
0	20496	3511	1
0	20509	3513	1
0	20518	3514	2
0	20535	3519	1
0	20543	3520	1
0	20549	3521	2
0	20556	3522	1
0	20582	3530	1
0	20593	3531	1
0	20638	3537	1
0	20669	3546	1
0	20689	3551	1
0	20705	3556	2
0	20718	3558	1
0	20728	3559	2
0	20753	3562	1
0	20762	3563	2
0	20774	3565	1
0	20780	3566	2
0	20790	3567	1
0	20799	3568	1
0	20824	3573	1
0	20846	3578	1
0	20859	3579	2
0	20870	3580	3
0	20880	3581	3
0	20891	3582	4
0	20899	3583	5
0	20906	3584	1
0	20918	3585	1
0	20929	3586	1
0	20940	3587	1
0	20963	3591	1
0	20972	3592	2
0	21004	3598	1
0	21014	3599	1
0	21031	3604	1
0	21103	3620	1
0	21148	3632	1
0	21154	3633	2
0	21163	3634	1
0	21172	3635	2
0	21197	3640	7
0	21203	3641	7
0	21209	3642	8
0	21219	3643	9
0	21230	3644	1
0	21280	3652	1
0	21299	3654	1
0	21305	3655	2
0	21311	3656	3
0	21328	3661	1
0	21343	3663	1
0	21354	3664	1
0	21375	3668	1
0	21386	3670	1
0	21396	3671	1
0	21403	3672	1
0	21410	3673	1
0	21417	3674	1
0	21430	3678	1
0	21441	3681	1
0	21453	3684	1
0	21459	3685	2
0	21468	3687	1
0	21478	3688	1
0	21496	3691	1
0	21542	3698	1
0	21558	3702	1
0	21568	3703	1
0	21577	3704	1
0	21586	3706	1
0	21610	3711	4
0	21620	3712	3
0	21628	3713	3
0	21638	3714	4
0	21649	3715	4
0	21657	3716	2
0	21690	3722	1
0	21696	3723	2
0	21720	3730	1
0	21752	3735	1
0	21768	3739	1
0	21777	3741	1
0	21806	3752	1
0	21825	3754	1
0	21857	3762	1
0	21866	3763	2
0	21895	3769	1
0	21935	3781	1
0	21946	3782	1
0	21960	3785	1
0	21985	3790	1
0	21996	3791	1
0	22022	3796	1
0	22038	3799	1
0	22049	3802	1
0	22087	3807	1
0	22105	3809	1
0	22117	3811	1
0	22133	3816	1
0	22140	3817	2
0	22174	3822	6
0	22185	3823	6
0	22194	3824	2
0	22220	3831	1
0	22278	3841	1
0	22310	3846	1
0	22331	3850	1
0	22346	3855	1
0	22353	3856	1
0	22411	3865	1
0	22422	3867	1
0	22440	3872	1
0	22449	3874	1
0	22479	3880	1
0	22489	3881	2
0	22495	3882	2
0	22502	3883	1
0	22515	3887	1
0	22524	3889	1
0	22531	3890	1
0	22544	3894	1
0	22553	3896	1
0	22569	3899	1
0	22583	3901	1
0	22598	3906	1
0	22611	3910	1
0	22618	3911	1
0	22676	3920	1
0	22687	3921	1
0	22700	3922	1
0	22726	3927	6
0	22733	3928	1
0	22743	3929	1
0	22754	3931	1
0	22761	3932	1
0	22770	3934	1
0	22788	3940	1
0	22795	3941	2
0	22802	3942	2
0	22812	3943	2
0	22827	3945	1
0	22847	3950	1
0	22860	3953	1
0	22870	3954	1
0	22886	3956	1
0	22920	3963	1
0	22926	3964	2
0	22937	3965	3
0	22948	3966	2
0	22956	3967	2
0	22965	3969	1
0	22981	3972	1
0	23028	3979	1
0	23039	3980	1
0	23049	3981	1
0	23056	3982	1
0	23063	3983	1
0	23081	3988	1
0	23099	3991	1
0	23114	3995	1
0	23133	4000	2
0	23154	4003	1
0	23177	4007	1
0	23191	4009	1
0	23206	4014	1
0	23213	4015	1
0	23222	4017	1
0	23274	4024	1
0	23294	4028	1
0	23337	4037	1
0	23364	4041	1
0	23381	4043	1
0	23404	4048	1
0	23416	4050	1
0	23428	4051	1
0	23439	4052	2
0	23458	4057	1
0	23467	4058	2
0	23476	4059	1
0	23489	4063	1
0	23517	4068	1
0	23548	4074	1
0	23564	4078	1
0	23626	4094	1
0	23649	4097	1
0	23668	4099	1
0	23681	4100	1
0	23697	4102	1
0	23732	4112	1
0	23748	4115	1
0	23779	4120	2
0	23786	4121	1
0	23811	4126	1
0	23821	4128	1
0	23827	4129	2
0	23838	4131	1
0	23861	4135	1
0	23881	4137	1
0	23892	4138	1
0	23926	4145	1
0	23937	4146	1
0	23947	4147	2
0	23958	4148	1
0	23973	4151	1
0	24007	4158	1
0	24024	4160	1
0	24031	4161	1
0	24038	4162	1
0	24054	4165	1
0	24065	4166	1
0	24094	4172	1
0	24100	4173	2
0	24113	4177	1
0	24129	4179	1
0	24148	4181	1
0	24162	4182	1
0	24173	4183	1
0	24201	4186	1
0	24211	4187	2
0	24250	4194	1
0	24307	4204	1
0	24326	4206	1
0	24359	4212	1
0	24366	4213	1
0	24395	4220	1
0	24405	4221	1
0	24449	4228	1
0	24481	4232	1
0	24500	4235	1
0	24516	4238	1
0	24533	4240	1
0	24567	4244	1
0	24584	4246	1
0	24610	4255	1
0	24619	4257	1
0	24668	4266	1
0	24678	4267	2
0	24705	4272	1
0	24711	4273	2
0	24743	4278	1
0	24788	4289	1
0	24810	4295	1
0	24820	4297	1
0	24826	4298	2
0	24874	4308	1
0	24903	4313	1
0	24919	4316	1
0	24940	4320	1
0	24979	4327	1
0	24995	4329	1
0	25107	4346	1
0	25119	4347	1
0	25151	4352	1
0	25161	4353	2
0	25184	4358	1
0	25241	4370	1
0	25254	4374	1
0	25283	4380	1
0	25295	4382	1
0	25334	4387	1
0	25366	4391	1
0	25377	4392	1
0	25387	4393	1
0	25410	4397	1
0	25417	4398	1
0	25448	4405	1
0	25458	4406	1
0	25465	4407	1
0	25475	4408	1
0	25491	4411	1
0	25507	4413	1
0	25529	4417	1
0	25565	4421	1
0	25579	4422	2
0	25590	4423	3
0	25600	4424	3
0	25610	4425	4
0	25620	4426	5
0	25633	4428	1
0	25640	4429	2
0	25656	4434	6
0	25665	4435	6
0	25689	4441	1
0	25698	4443	1
0	25782	4460	1
0	25828	4471	1
0	25839	4472	2
0	25861	4475	1
0	25872	4476	2
0	25912	4485	1
0	25925	4489	1
0	25942	4492	1
0	25954	4493	2
0	25983	4497	1
0	26007	4505	1
0	26019	4506	1
0	26062	4515	1
0	26081	4521	1
0	26091	4522	1
0	26102	4524	1
0	26120	4529	1
0	26129	4531	1
0	26138	4533	1
0	26152	4535	1
0	26170	4537	1
0	26189	4539	1
0	26200	4540	1
0	26226	4547	1
0	26279	4556	1
0	26286	4557	1
0	26326	4562	3
0	26358	4566	1
0	26398	4573	1
0	26439	4582	1
0	26484	4592	1
0	26497	4594	1
0	26507	4595	2
0	26516	4596	2
0	26522	4597	2
0	26529	4598	1
0	26601	4611	1
0	26607	4612	2
0	26651	4619	1
0	26662	4620	2
0	26673	4621	2
0	26683	4622	2
0	26692	4623	2
0	26701	4624	1
0	26711	4625	1
0	26720	4626	1
0	26727	4627	1
0	26747	4632	1
0	26784	4638	1
0	26815	4642	1
0	26828	4643	1
0	26877	4650	1
0	26896	4652	1
0	26976	4668	1
0	26992	4670	1
0	27003	4671	2
0	27031	4676	4
0	27043	4677	1
0	27067	4680	1
0	27083	4682	1
0	27108	4686	1
0	27128	4688	1
0	27173	4699	1
0	27179	4700	2
0	27217	4705	1
0	27226	4706	2
0	27236	4707	1
0	27253	4710	1
0	27283	4717	1
0	27327	4728	1
0	27341	4731	1
0	27348	4732	1
0	27368	4737	1
0	27379	4740	1
0	27390	4741	1
0	27398	4742	2
0	27405	4743	1
0	27415	4745	1
0	27424	4746	2
0	27437	4747	1
0	27449	4748	1
0	27470	4753	1
0	27480	4755	1
0	27486	4756	2
0	27499	4760	1
0	27510	4763	1
0	27547	4768	3
0	27556	4769	4
0	27568	4770	1
0	27601	4779	1
0	27613	4780	2
0	27649	4787	1
0	27660	4790	1
0	27667	4791	1
0	27674	4792	1
0	27700	4799	1
0	27721	4803	1
0	27751	4809	1
0	27780	4815	1
0	27792	4817	1
0	27802	4818	2
0	27809	4819	2
0	27817	4820	2
0	27826	4821	2
0	27834	4822	3
0	27848	4824	1
0	27865	4826	1
0	27904	4831	1
0	27934	4836	1
0	27940	4837	2
0	27946	4838	3
0	27953	4839	1
0	27972	4845	1
0	27982	4846	1
0	28013	4853	1
0	28043	4859	1
0	28065	4864	5
0	28071	4865	4
0	28095	4868	1
0	28111	4870	1
0	28122	4872	1
0	28139	4874	1
0	28159	4877	1
0	28185	4880	1
0	28195	4881	2
0	28206	4882	1
0	28212	4883	2
0	28223	4884	1
0	28234	4885	2
0	28289	4895	1
0	28298	4896	2
0	28312	4899	1
0	28336	4905	1
0	28346	4906	1
0	28374	4913	1
0	28397	4918	1
0	28413	4921	1
0	28423	4922	1
0	28438	4923	1
0	28448	4924	2
0	28456	4925	3
0	28463	4926	1
0	28527	4937	1
0	28547	4940	1
0	28556	4941	2
0	28574	4944	1
0	28598	4949	4
0	28607	4950	2
0	28641	4956	1
0	28692	4964	1
0	28713	4966	1
0	28723	4967	2
0	28735	4968	1
0	28751	4972	1
0	28760	4974	1
0	28794	4985	1
0	28800	4986	2
0	28806	4987	3
0	28815	4989	1
1	2454	401	2
1	2465	402	1
1	2474	403	2
1	2476	403	1
1	2488	404	0
1	2497	405	1
1	2498	405	2
1	2501	405	1
1	2510	406	2
1	2515	406	1
1	2525	407	0
1	2618	420	1
1	2618	420	0
1	2619	420	1
1	2629	421	0
1	2636	422	1
1	2639	422	0
1	2664	426	1
1	2664	426	0
1	2671	427	1
1	2674	427	0
1	2702	432	1
1	2702	432	0
1	2749	445	1
1	2749	445	0
1	2758	447	1
1	2758	447	0
1	2759	447	1
1	2769	448	0
1	2791	451	1
1	2791	451	0
1	2799	452	1
1	2800	452	2
1	2802	452	1
1	2810	453	0
1	2815	454	1
1	2817	454	0
1	2837	459	1
1	2837	459	0
1	2867	464	1
1	2867	464	0
1	2885	468	1
1	2885	468	0
1	2886	468	1
1	2891	469	2
1	2893	469	1
1	2899	470	0
1	2947	479	1
1	2947	479	0
1	2948	479	1
1	2954	480	0
1	2974	485	1
1	2974	485	0
1	2999	490	1
1	2999	490	0
1	3032	495	1
1	3032	495	0
1	3046	497	1
1	3060	500	0
1	3068	501	1
1	3070	501	0
1	3084	503	1
1	3084	503	0
1	3099	507	1
1	3099	507	0
1	3100	507	1
1	3106	508	0
1	3111	509	1
1	3113	509	0
1	3118	510	1
1	3121	510	0
1	3128	511	1
1	3132	511	0
1	3179	522	1
1	3179	522	0
1	3184	523	1
1	3186	523	0
1	3244	533	1
1	3244	533	0
1	3255	535	1
1	3255	535	0
1	3289	542	1
1	3289	542	0
1	3312	547	1
1	3312	547	0
1	3358	555	1
1	3358	555	0
1	3387	561	1
1	3387	561	0
1	3392	562	1
1	3396	562	0
1	3448	572	1
1	3448	572	0
1	3466	574	1
1	3466	574	0
1	3473	575	1
1	3475	575	0
1	3498	579	1
1	3498	579	0
1	3507	580	1
1	3509	580	0
1	3537	586	1
1	3537	586	0
1	3538	586	1
1	3539	586	2
1	3540	586	3
1	3546	587	2
1	3553	588	1
1	3560	589	2
1	3564	589	1
1	3570	590	0
1	3582	592	1
1	3582	592	0
1	3602	597	1
1	3602	597	0
1	3620	600	1
1	3620	600	0
1	3625	601	1
1	3646	604	2
1	3652	605	1
1	3658	606	0
1	3684	610	1
1	3684	610	0
1	3701	615	1
1	3701	615	0
1	3717	618	1
1	3717	618	0
1	3718	618	1
1	3725	619	0
1	3759	624	1
1	3759	624	0
1	3760	624	1
1	3766	625	0
1	3797	633	1
1	3797	633	0
1	3848	641	1
1	3848	641	0
1	3865	643	1
1	3865	643	0
1	3885	648	1
1	3885	648	0
1	3892	649	1
1	3893	649	2
1	3896	649	1
1	3909	650	0
1	3916	651	1
1	3920	651	0
1	3978	666	1
1	3978	666	0
1	3989	669	1
1	3989	669	0
1	3994	670	1
1	3997	670	0
1	4004	671	1
1	4008	671	0
1	4013	672	1
1	4015	672	0
1	4020	673	1
1	4022	673	0
1	4031	675	1
1	4031	675	0
1	4049	679	1
1	4049	679	0
1	4071	685	1
1	4071	685	0
1	4086	688	1
1	4086	688	0
1	4111	691	1
1	4111	691	0
1	4129	695	1
1	4129	695	0
1	4136	696	1
1	4138	696	0
1	4158	701	1
1	4158	701	0
1	4159	701	1
1	4165	702	0
1	4176	704	1
1	4187	706	2
1	4195	707	1
1	4196	707	2
1	4204	708	1
1	4209	709	2
1	4211	709	1
1	4217	710	0
1	4228	713	1
1	4228	713	0
1	4255	719	1
1	4255	719	0
1	4263	720	1
1	4265	720	0
1	4282	725	1
1	4282	725	0
1	4290	726	1
1	4292	726	0
1	4314	729	1
1	4314	729	0
1	4323	730	1
1	4325	730	0
1	4341	733	1
1	4341	733	0
1	4360	735	1
1	4360	735	0
1	4367	736	1
1	4369	736	0
1	4378	738	1
1	4378	738	0
1	4386	739	1
1	4388	739	0
1	4395	740	1
1	4397	740	0
1	4415	744	1
1	4415	744	0
1	4423	745	1
1	4425	745	0
1	4459	752	1
1	4459	752	0
1	4478	754	1
1	4478	754	0
1	4492	756	1
1	4492	756	0
1	4505	759	1
1	4505	759	0
1	4539	767	1
1	4539	767	0
1	4556	772	1
1	4556	772	0
1	4610	784	1
1	4610	784	0
1	4615	785	1
1	4617	785	0
1	4638	789	1
1	4638	789	0
1	4662	795	1
1	4662	795	0
1	4686	800	1
1	4686	800	0
1	4687	800	1
1	4696	801	2
1	4708	803	3
1	4715	804	4
1	4721	805	3
1	4726	806	4
1	4728	806	3
1	4736	807	2
1	4746	808	1
1	4756	809	0
1	4768	811	1
1	4768	811	0
1	4788	815	1
1	4788	815	0
1	4789	815	1
1	4795	816	0
1	4833	826	1
1	4833	826	0
1	4834	826	1
1	4841	827	2
1	4843	827	1
1	4850	828	0
1	4871	834	1
1	4871	834	0
1	4879	835	1
1	4881	835	0
1	4901	839	1
1	4901	839	0
1	4940	844	1
1	4940	844	0
1	4978	850	1
1	4978	850	0
1	4998	855	1
1	4998	855	0
1	4999	855	1
1	5005	856	0
1	5021	860	1
1	5021	860	0
1	5035	862	1
1	5035	862	0
1	5042	863	1
1	5044	863	0
1	5058	866	1
1	5058	866	0
1	5070	867	1
1	5072	867	0
1	5089	869	1
1	5089	869	0
1	5102	872	1
1	5102	872	0
1	5111	874	1
1	5111	874	0
1	5120	876	1
1	5120	876	0
1	5138	878	1
1	5138	878	0
1	5153	880	1
1	5153	880	0
1	5165	882	1
1	5165	882	0
1	5172	883	1
1	5183	887	0
1	5184	887	1
1	5192	888	2
1	5194	888	1
1	5203	889	0
1	5262	899	1
1	5262	899	0
1	5263	899	1
1	5275	900	0
1	5284	901	1
1	5286	901	0
1	5311	906	1
1	5311	906	0
1	5328	908	1
1	5328	908	0
1	5329	908	1
1	5339	909	2
1	5340	909	3
1	5342	909	2
1	5349	910	3
1	5351	910	2
1	5357	911	1
1	5363	912	0
1	5382	915	1
1	5382	915	0
1	5395	918	1
1	5395	918	0
1	5414	920	1
1	5414	920	0
1	5445	924	1
1	5445	924	0
1	5452	925	1
1	5454	925	0
1	5459	926	1
1	5461	926	0
1	5466	927	1
1	5469	927	0
1	5500	933	1
1	5500	933	0
1	5514	935	1
1	5514	935	0
1	5523	936	1
1	5526	936	0
1	5544	938	1
1	5544	938	0
1	5553	939	1
1	5555	939	0
1	5578	943	1
1	5578	943	0
1	5585	944	1
1	5589	944	0
1	5612	949	1
1	5612	949	0
1	5626	952	1
1	5626	952	0
1	5654	960	1
1	5654	960	0
1	5669	963	1
1	5669	963	0
1	5703	969	1
1	5703	969	0
1	5786	984	1
1	5786	984	0
1	5824	992	1
1	5824	992	0
1	5833	993	1
1	5835	993	0
1	5853	995	1
1	5853	995	0
1	5905	1005	1
1	5905	1005	0
1	5924	1008	1
1	5924	1008	0
1	5945	1015	1
1	5945	1015	0
1	5946	1015	1
1	5958	1016	0
1	5981	1019	1
1	5981	1019	0
1	6024	1025	1
1	6024	1025	0
1	6043	1027	1
1	6043	1027	0
1	6073	1034	1
1	6073	1034	0
1	6096	1039	1
1	6096	1039	0
1	6103	1040	1
1	6105	1040	0
1	6110	1041	1
1	6112	1041	0
1	6156	1053	1
1	6156	1053	0
1	6161	1054	1
1	6163	1054	0
1	6199	1062	1
1	6199	1062	0
1	6208	1064	1
1	6208	1064	0
1	6209	1064	1
1	6210	1064	2
1	6216	1065	1
1	6223	1066	0
1	6230	1067	1
1	6234	1067	0
1	6243	1069	1
1	6243	1069	0
1	6343	1087	1
1	6343	1087	0
1	6358	1089	1
1	6358	1089	0
1	6430	1110	1
1	6430	1110	0
1	6448	1112	1
1	6448	1112	0
1	6469	1117	1
1	6469	1117	0
1	6484	1122	1
1	6484	1122	0
1	6499	1125	1
1	6500	1125	2
1	6514	1127	1
1	6515	1127	2
1	6523	1128	1
1	6531	1129	0
1	6554	1134	1
1	6554	1134	0
1	6559	1135	1
1	6562	1135	0
1	6580	1138	1
1	6580	1138	0
1	6598	1141	1
1	6598	1141	0
1	6639	1149	1
1	6639	1149	0
1	6647	1150	1
1	6649	1150	0
1	6679	1156	1
1	6679	1156	0
1	6688	1157	1
1	6690	1157	0
1	6708	1159	1
1	6708	1159	0
1	6718	1160	1
1	6721	1160	0
1	6742	1163	1
1	6742	1163	0
1	6782	1173	1
1	6782	1173	0
1	6799	1177	1
1	6799	1177	0
1	6824	1180	1
1	6824	1180	0
1	6831	1181	1
1	6833	1181	0
1	6858	1186	1
1	6858	1186	0
1	6867	1188	1
1	6867	1188	0
1	6906	1196	1
1	6906	1196	0
1	6924	1199	1
1	6924	1199	0
1	6929	1200	1
1	6932	1200	0
1	6955	1203	1
1	6955	1203	0
1	6962	1204	1
1	6965	1204	0
1	6987	1209	1
1	6987	1209	0
1	7043	1221	1
1	7043	1221	0
1	7068	1226	1
1	7068	1226	0
1	7088	1229	1
1	7088	1229	0
1	7113	1232	1
1	7113	1232	0
1	7128	1234	1
1	7129	1234	2
1	7139	1236	3
1	7143	1237	2
1	7151	1238	3
1	7153	1238	2
1	7161	1239	1
1	7167	1240	0
1	7198	1248	1
1	7198	1248	0
1	7214	1251	1
1	7214	1251	0
1	7244	1256	1
1	7244	1256	0
1	7282	1263	1
1	7282	1263	0
1	7292	1264	1
1	7293	1264	2
1	7296	1264	1
1	7306	1265	0
1	7323	1268	1
1	7323	1268	0
1	7343	1273	1
1	7343	1273	0
1	7362	1280	1
1	7362	1280	0
1	7371	1282	1
1	7371	1282	0
1	7441	1297	1
1	7441	1297	0
1	7450	1298	1
1	7452	1298	0
1	7461	1299	1
1	7463	1299	0
1	7470	1300	1
1	7473	1300	0
1	7559	1322	1
1	7559	1322	0
1	7579	1326	1
1	7579	1326	0
1	7611	1333	1
1	7611	1333	0
1	7624	1336	1
1	7624	1336	0
1	7642	1338	1
1	7642	1338	0
1	7657	1340	1
1	7657	1340	0
1	7665	1341	1
1	7668	1341	0
1	7683	1343	1
1	7683	1343	0
1	7684	1343	1
1	7690	1344	0
1	7712	1350	1
1	7712	1350	0
1	7734	1354	1
1	7734	1354	0
1	7766	1358	1
1	7766	1358	0
1	7776	1360	1
1	7786	1362	2
1	7790	1363	1
1	7791	1363	2
1	7797	1364	1
1	7802	1365	2
1	7804	1365	1
1	7809	1366	2
1	7812	1366	1
1	7822	1367	0
1	7827	1368	1
1	7830	1368	0
1	7856	1374	1
1	7856	1374	0
1	7861	1375	1
1	7865	1375	0
1	7896	1382	1
1	7896	1382	0
1	7905	1383	1
1	7907	1383	0
1	7977	1397	1
1	7977	1397	0
1	7993	1400	1
1	7993	1400	0
1	7994	1400	1
1	8001	1401	0
1	8052	1408	1
1	8052	1408	0
1	8063	1410	1
1	8063	1410	0
1	8081	1414	1
1	8081	1414	0
1	8082	1414	1
1	8087	1415	2
1	8089	1415	1
1	8095	1416	0
1	8106	1419	1
1	8106	1419	0
1	8167	1432	1
1	8167	1432	0
1	8172	1433	1
1	8174	1433	0
1	8185	1436	1
1	8185	1436	0
1	8190	1437	1
1	8192	1437	0
1	8197	1438	1
1	8199	1438	0
1	8208	1440	1
1	8208	1440	0
1	8216	1441	1
1	8218	1441	0