version 3
run Experimentos-499-20260514-09:21:20-5920
attr configname Experimentos
attr datetime 20260514-09:21:20
attr datetimef 20260514-092120
attr experiment Experimentos
attr inifile TwoQueues.ini
attr iterationvars "$p=0.7, $q=0.2, $Y=10, $m=2"
attr iterationvarsd p=0.7/q=0.2/Y=10/m=2
attr iterationvarsf p=0.7,q=0.2,Y=10,m=2-
attr measurement "$p=0.7, $q=0.2, $Y=10, $m=2"
attr network TwoQueues
attr processid 5920
attr repetition 19
attr replication #19
attr resultdir results
attr runnumber 499
attr seedset 499
itervar Y 10
itervar m 2
itervar p 0.7
itervar q 0.2
config description "Barrido completo de parámetros Proyecto 12"
config **.source1.p 0.7
config **.source1.q 0.2
config **.source2.p 0.6
config **.source2.q 0.2
config **.serverWithMaintenance.Y 10
config **.serverWithMaintenance.m 2
config network TwoQueues
config cpu-time-limit 5000s
config sim-time-limit 5000s
config warmup-period 400s
config repeat 20
config output-scalar-file results/Experimentos-p=0.7,q=0.2,Y=10,m=2--#19.sca
config output-vector-file results/Experimentos-p=0.7,q=0.2,Y=10,m=2--#19.vec
config **.vector-recording true

vector 0 TwoQueues.serverWithMaintenance residenceTime2:vector ETV
attr recordingmode vector
attr source delay2
attr title "Residence Time Class 2"
vector 1 TwoQueues.queue2 queueLengthStats:vector ETV
attr recordingmode vector
attr source qlen
attr title "Average Queue Length"
vector 2 TwoQueues.queue1 queueLengthStats:vector ETV
attr recordingmode vector
attr source qlen
attr title "Average Queue Length"
vector 3 TwoQueues.server residenceTime1:vector ETV
attr recordingmode vector
attr source delay1
attr title "Residence Time Class 1"
vector 4 TwoQueues.server throughputStats1:vector ETV
attr recordingmode vector
attr source throughput1
attr title "Throughput Class 1"
0	1991	400	2
0	1997	401	2
0	2060	412	1
0	2069	413	2
0	2100	421	1
0	2133	429	1
0	2165	435	1
0	2175	436	1
0	2195	439	3
0	2206	440	3
0	2216	441	2
0	2225	442	1
0	2238	446	1
0	2245	447	1
0	2256	448	1
0	2280	452	1
0	2303	456	1
0	2345	467	1
0	2358	470	3
0	2364	471	3
0	2374	472	1
0	2401	477	1
0	2459	485	1
0	2479	491	1
0	2488	493	1
0	2495	494	1
0	2558	513	1
0	2565	514	1
0	2592	522	1
0	2610	526	1
0	2619	528	1
0	2641	533	1
0	2665	537	1
0	2827	574	1
0	2833	575	2
0	2903	595	1
0	2954	608	1
0	2970	611	1
0	2994	614	2
0	3027	618	1
0	3062	624	1
0	3094	631	1
0	3105	632	2
0	3159	650	1
0	3195	658	1
0	3204	660	1
0	3230	668	1
0	3247	670	1
0	3269	673	3
0	3278	674	3
0	3311	683	1
0	3329	689	1
0	3339	690	2
0	3387	701	1
0	3407	705	1
0	3455	715	1
0	3462	716	1
0	3486	725	1
0	3504	728	4
0	3514	729	1
0	3550	738	1
0	3622	748	1
0	3668	756	1
0	3678	757	2
0	3691	758	3
0	3701	759	2
0	3707	760	3
0	3717	761	3
0	3746	767	1
0	3806	779	1
0	3816	780	2
0	3827	781	1
0	3845	784	1
0	3852	785	1
0	3882	790	1
0	3895	794	1
0	3913	797	1
0	3923	798	1
0	4023	823	1
0	4059	828	1
0	4106	839	1
0	4133	844	1
0	4154	848	1
0	4181	853	1
0	4200	855	1
0	4212	856	1
0	4239	862	1
0	4303	880	1
0	4322	883	3
0	4332	884	1
0	4357	889	1
0	4377	892	1
0	4413	897	1
0	4455	908	1
0	4464	910	1
0	4479	915	1
0	4486	916	1
0	4504	920	1
0	4735	976	1
0	4751	978	1
0	4783	984	1
0	4827	996	1
0	4844	1001	1
0	4891	1008	1
0	4904	1009	1
0	4914	1010	2
0	4946	1014	1
0	4966	1017	1
0	4993	1021	1
0	5004	1024	1
0	5022	1028	1
0	5031	1030	1
0	5042	1031	1
0	5084	1038	1
0	5140	1051	1
0	5152	1053	1
0	5219	1069	1
0	5244	1072	1
0	5267	1075	4
0	5297	1079	1
0	5374	1092	1
0	5392	1094	1
0	5441	1101	1
0	5480	1108	1
0	5497	1110	1
0	5512	1115	1
0	5522	1116	1
0	5535	1119	1
0	5581	1128	1
0	5595	1131	1
0	5614	1134	1
0	5652	1144	1
0	5658	1145	2
0	5746	1164	1
0	5756	1165	2
0	5768	1166	1
0	5786	1168	1
0	5798	1170	1
0	5818	1173	3
0	5829	1174	1
0	5839	1175	1
0	5846	1176	1
0	5856	1178	1
0	5865	1179	2
0	5893	1187	1
0	5916	1191	1
0	5927	1192	2
0	5937	1193	2
0	5968	1203	1
0	6050	1220	1
0	6060	1221	1
0	6117	1232	1
0	6170	1239	1
0	6182	1241	1
0	6197	1246	1
0	6233	1254	1
0	6313	1272	1
0	6323	1273	2
0	6347	1276	2
0	6382	1282	1
0	6402	1284	1
0	6422	1287	1
0	6459	1293	1
0	6500	1302	1
0	6510	1303	1
0	6527	1307	1
0	6540	1309	1
0	6546	1310	2
0	6567	1314	1
0	6577	1315	1
0	6596	1317	1
0	6606	1318	2
0	6641	1322	1
0	6696	1331	1
0	6809	1360	1
0	6819	1361	1
0	6826	1362	1
0	6851	1366	1
0	6868	1369	3
0	6925	1381	1
0	6943	1386	1
0	6979	1393	1
0	6999	1396	1
0	7100	1416	1
0	7181	1434	1
0	7188	1435	1
0	7195	1436	1
0	7271	1449	1
0	7295	1452	4
0	7309	1454	1
0	7360	1466	1
0	7385	1469	1
0	7440	1478	1
0	7465	1482	1
0	7477	1484	1
0	7505	1488	1
0	7528	1493	1
0	7546	1495	1
0	7561	1498	3
0	7578	1501	1
0	7597	1503	1
0	7607	1504	2
0	7617	1505	3
0	7627	1506	1
0	7667	1516	1
0	7715	1524	1
0	7732	1526	1
0	7742	1527	1
0	7768	1531	1
0	7821	1548	1
0	7832	1549	1
0	7861	1554	1
0	7889	1559	1
0	7912	1563	1
0	8004	1579	1
0	8013	1581	1
0	8040	1587	1
0	8065	1597	1
0	8121	1612	1
0	8157	1622	1
0	8167	1623	2
0	8179	1624	2
0	8220	1634	1
0	8300	1654	1
0	8316	1657	1
0	8325	1659	1
0	8339	1661	1
0	8412	1685	1
0	8430	1690	1
0	8461	1694	1
0	8486	1699	1
0	8497	1702	1
0	8517	1707	1
0	8524	1708	1
0	8679	1743	1
0	8704	1748	1
0	8741	1755	1
0	8763	1760	1
0	8837	1775	1
0	8871	1779	1
0	8901	1786	1
0	8910	1788	1
0	8924	1791	1
0	8940	1793	1
0	8965	1797	1
0	8977	1799	1
0	9107	1823	1
0	9117	1824	1
0	9130	1827	3
0	9136	1828	2
0	9187	1840	1
0	9207	1842	1
0	9224	1844	1
0	9233	1845	2
0	9253	1849	1
0	9275	1855	1
0	9285	1856	1
0	9310	1859	1
0	9360	1872	1
0	9414	1882	1
0	9474	1890	1
0	9541	1905	1
0	9554	1908	1
0	9621	1920	1
0	9762	1944	1
0	9773	1945	2
0	9800	1951	1
0	9821	1955	1
0	9946	1983	1
0	9997	1990	1
0	10072	2003	1
0	10138	2018	1
0	10151	2022	1
0	10193	2033	1
0	10238	2043	1
0	10251	2047	1
0	10260	2049	1
0	10275	2054	1
0	10301	2058	1
0	10311	2059	1
0	10361	2070	1
0	10377	2072	1
0	10388	2075	1
0	10427	2087	1
0	10436	2089	1
0	10460	2094	1
0	10498	2100	1
0	10525	2105	1
0	10546	2108	1
0	10555	2109	2
0	10578	2112	1
0	10590	2113	1
0	10601	2114	1
0	10616	2116	1
0	10632	2119	1
0	10646	2121	1
0	10677	2129	1
0	10726	2140	1
0	10791	2155	1
0	10800	2156	2
0	10832	2160	1
0	10895	2169	1
0	10907	2171	1
0	10922	2176	1
0	10945	2179	1
0	10957	2181	1
0	10968	2184	1
0	11038	2200	1
0	11078	2205	1
0	11101	2210	1
0	11141	2219	1
0	11190	2228	1
0	11217	2231	1
0	11245	2237	1
0	11254	2239	1
0	11265	2240	1
0	11319	2253	1
0	11342	2255	1
0	11369	2258	1
0	11380	2259	2
0	11392	2260	2
0	11420	2264	1
0	11447	2269	1
0	11482	2274	1
0	11492	2275	1
0	11502	2276	1
0	11522	2278	1
0	11557	2284	1
0	11584	2287	3
0	11600	2291	1
0	11647	2302	1
0	11667	2308	1
0	11683	2310	1
0	11692	2312	1
0	11720	2321	1
0	11739	2328	1
0	11752	2330	1
0	11763	2331	2
0	11870	2349	1
0	11948	2361	1
0	11960	2363	1
0	11971	2365	1
0	11998	2371	1
0	12045	2379	1
0	12126	2397	1
0	12141	2398	2
0	12155	2399	1
0	12180	2402	1
0	12204	2405	4
0	12214	2406	4
0	12228	2409	1
0	12239	2412	1
0	12258	2415	1
0	12269	2416	1
0	12279	2417	1
0	12286	2418	1
0	12314	2425	1
0	12326	2426	2
0	12350	2429	4
0	12356	2430	3
0	12363	2431	1
0	12381	2435	1
0	12429	2444	1
0	12448	2450	1
0	12477	2457	1
0	12491	2460	1
0	12517	2464	1
0	12556	2470	1
0	12617	2485	1
0	12632	2489	1
0	12672	2494	1
0	12693	2498	1
0	12717	2505	1
0	12725	2506	1
0	12735	2507	2
0	12753	2509	1
0	12769	2511	1
0	12917	2549	1
0	12937	2552	2
0	12950	2556	1
0	12961	2557	1
0	12969	2558	2
0	13009	2567	1
0	13019	2568	1
0	13030	2571	1
0	13039	2573	1
0	13052	2576	1
0	13062	2577	2
0	13084	2580	5
0	13095	2583	1
0	13119	2589	1
0	13136	2591	1
0	13147	2594	1
0	13195	2602	1
0	13207	2603	1
0	13219	2605	1
0	13228	2607	1
0	13263	2617	1
0	13278	2620	3
0	13287	2621	2
0	13302	2625	1
0	13318	2629	1
0	13337	2631	1
0	13348	2632	2
0	13358	2633	2
0	13378	2635	1
0	13415	2643	1
0	13457	2648	1
0	13482	2651	2
0	13492	2652	2
0	13509	2654	1
0	13570	2672	1
0	13597	2679	1
0	13606	2680	2
0	13660	2695	1
0	13678	2697	1
0	13689	2698	2
0	13703	2701	1
0	13727	2704	3
0	13740	2705	3
0	13750	2706	4
0	13785	2711	1
0	13791	2712	2
0	13807	2715	1
0	13843	2722	1
0	13890	2734	1
0	13960	2754	1
0	13971	2757	1
0	13988	2760	2
0	14090	2786	1
0	14106	2788	1
0	14175	2800	1
0	14191	2803	1
0	14228	2810	1
0	14251	2814	1
0	14268	2816	1
0	14278	2817	2
0	14287	2818	2
0	14309	2821	2
0	14319	2822	3
0	14325	2823	2
0	14348	2827	1
0	14359	2830	1
0	14387	2839	1
0	14403	2841	1
0	14457	2848	1
0	14513	2862	1
0	14543	2872	1
0	14620	2895	1
0	14657	2906	1
0	14676	2908	1
0	14718	2914	1
0	14741	2917	1
0	14753	2918	1
0	14763	2919	1
0	14784	2922	1
0	14797	2926	1
0	14814	2932	1
0	14826	2935	1
0	14869	2948	1
0	14908	2956	1
0	14929	2959	1
0	14936	2960	1
0	14972	2968	1
0	15033	2977	1
0	15044	2978	1
0	15070	2987	1
0	15080	2988	1
0	15094	2991	2
0	15114	2996	1
0	15145	3005	1
0	15163	3008	1
0	15341	3047	1
0	15378	3054	1
0	15396	3056	1
0	15410	3059	1
0	15421	3062	1
0	15428	3063	1
0	15440	3066	2
0	15490	3076	1
0	15501	3079	1
0	15544	3088	1
0	15560	3091	1
0	15596	3100	1
0	15614	3102	1
0	15627	3103	1
0	15715	3117	1
0	15731	3119	1
0	15766	3126	1
0	15776	3127	1
0	15789	3130	1
0	15816	3136	1
0	15825	3138	1
0	15849	3142	1
0	15858	3143	2
0	15871	3144	1
0	15879	3145	2
0	15886	3146	1
0	15899	3149	3
0	15908	3150	3
0	15921	3152	1
0	15939	3156	1
0	15960	3160	1
0	15973	3163	1
0	15979	3164	2
0	15986	3165	3
0	15992	3166	2
0	16015	3170	1
0	16110	3201	1
0	16122	3202	1
0	16139	3204	1
0	16150	3207	1
0	16159	3209	1
0	16192	3214	1
0	16238	3220	1
0	16248	3221	1
0	16272	3228	1
0	16286	3231	1
0	16305	3234	4
0	16328	3238	1
0	16342	3240	1
0	16362	3244	1
0	16374	3245	1
0	16391	3248	1
0	16407	3250	1
0	16431	3257	1
0	16438	3258	1
0	16484	3270	1
0	16506	3275	1
0	16515	3276	2
0	16533	3280	1
0	16549	3283	1
0	16588	3295	1
0	16616	3304	1
0	16631	3309	1
0	16651	3314	1
0	16658	3315	1
0	16701	3321	1
0	16714	3324	4
0	16726	3326	1
0	16759	3331	1
0	16813	3342	1
0	16852	3349	1
0	16866	3350	1
0	16940	3363	1
0	16968	3368	1
0	16993	3372	1
0	17002	3374	1
0	17021	3377	1
0	17036	3379	1
0	17058	3383	1
0	17145	3405	1
0	17152	3406	1
0	17197	3416	1
0	17208	3419	1
0	17232	3422	1
0	17252	3425	1
0	17262	3426	1
0	17315	3437	1
0	17344	3444	1
0	17362	3448	1
0	17375	3451	1
0	17390	3454	1
0	17397	3455	2
0	17403	3456	2
0	17410	3457	1
0	17448	3466	1
0	17492	3472	1
0	17533	3481	1
0	17558	3485	1
0	17568	3486	2
0	17579	3487	1
0	17613	3493	1
0	17630	3499	1
0	17652	3504	1
0	17668	3508	1
0	17710	3519	1
0	17758	3528	1
0	17774	3533	1
0	17798	3540	1
0	17805	3541	1
0	17814	3543	1
0	17853	3554	1
0	17869	3557	1
0	17910	3564	1
0	17927	3566	1
0	17954	3572	1
0	17966	3573	1
0	17998	3577	1
0	18009	3579	1
0	18026	3581	1
0	18071	3590	1
0	18081	3591	1
0	18092	3594	1
0	18118	3602	1
0	18125	3603	1
0	18184	3613	1
0	18195	3614	2
0	18258	3629	1
0	18265	3630	1
0	18285	3635	1
0	18328	3643	1
0	18363	3649	1
0	18372	3651	1
0	18384	3652	1
0	18394	3653	2
0	18406	3654	1
0	18433	3659	1
0	18574	3683	1
0	18584	3684	1
0	18600	3687	1
0	18655	3697	1
0	18666	3699	1
0	18680	3702	1
0	18711	3709	1
0	18736	3715	1
0	18778	3725	1
0	18799	3729	1
0	18822	3732	3
0	18828	3733	3
0	18859	3741	1
0	18869	3742	1
0	18914	3751	1
0	18963	3763	1
0	18995	3771	1
0	19001	3772	2
0	19113	3799	1
0	19122	3800	2
0	19134	3803	3
0	19179	3818	1
0	19222	3827	1
0	19258	3832	1
0	19272	3833	1
0	19337	3842	1
0	19347	3843	2
0	19374	3846	1
0	19391	3848	1
0	19415	3851	1
0	19439	3854	2
0	19490	3863	1
0	19499	3865	1
0	19507	3866	1
0	19513	3867	2
0	19522	3869	1
0	19552	3879	1
0	19567	3881	1
0	19576	3882	2
0	19658	3903	1
0	19683	3906	1
0	19691	3907	2
0	19697	3908	2
0	19706	3909	3
0	19717	3911	1
0	19735	3914	1
0	19747	3916	1
0	19768	3920	1
0	19801	3928	1
0	19821	3933	1
0	19841	3936	3
0	19852	3937	2
0	19879	3942	1
0	19932	3953	1
0	19988	3965	1
0	20001	3967	1
0	20011	3968	2
0	20019	3969	2
0	20029	3970	1
0	20042	3973	1
0	20054	3976	2
0	20061	3977	1
0	20086	3980	1
0	20112	3983	1
0	20129	3985	1
0	20159	3990	1
0	20173	3993	1
0	20212	3999	1
0	20226	4001	1
0	20247	4005	1
0	20264	4008	3
0	20281	4010	1
0	20290	4011	2
0	20299	4013	1
0	20306	4014	1
0	20371	4029	1
0	20417	4042	1
0	20430	4045	1
0	20440	4046	1
0	20472	4056	1
0	20561	4077	1
0	20571	4078	2
0	20607	4083	1
0	20623	4086	1
0	20708	4107	1
0	20722	4109	1
0	20761	4116	1
0	20778	4118	1
0	20797	4120	1
0	20833	4127	1
0	20865	4134	1
0	21009	4167	1
0	21033	4173	1
0	21052	4176	1
0	21094	4187	1
0	21132	4192	1
0	21143	4193	2
0	21185	4202	1
0	21192	4203	2
0	21198	4204	2
0	21256	4214	1
0	21277	4217	1
0	21291	4220	1
0	21373	4243	1
0	21379	4244	2
0	21388	4246	1
0	21402	4250	1
0	21411	4251	2
0	21447	4258	1
0	21538	4276	1
0	21582	4290	1
0	21648	4303	1
0	21655	4304	1
0	21665	4305	1
0	21674	4306	1
0	21689	4311	1
0	21698	4313	1
0	21721	4317	1
0	21732	4320	1
0	21748	4322	1
0	21784	4329	1
0	21821	4334	1
0	21951	4364	1
0	21980	4370	1
0	22099	4397	1
0	22123	4401	1
0	22239	4417	1
0	22251	4418	1
0	22297	4424	1
0	22316	4426	1
0	22340	4429	4
0	22351	4430	5
0	22363	4432	1
0	22415	4443	1
0	22489	4456	1
0	22498	4457	2
0	22535	4462	1
0	22556	4466	1
0	22607	4479	1
0	22614	4480	1
0	22628	4484	1
0	22656	4488	1
0	22663	4489	1
0	22679	4492	1
0	22737	4506	1
0	22759	4512	1
0	22766	4513	1
0	22776	4514	1
0	22798	4518	1
0	22809	4519	1
0	22827	4522	4
0	22855	4526	1
0	22871	4529	1
0	22898	4536	1
0	22927	4543	1
0	22958	4548	1
0	22964	4549	2
0	22978	4551	1
0	22991	4555	1
0	23048	4571	1
0	23060	4574	2
0	23131	4589	1
0	23138	4590	2
0	23147	4591	2
0	23160	4594	1
0	23169	4596	1
0	23190	4603	1
0	23257	4620	1
0	23271	4622	1
0	23283	4623	1
0	23312	4626	4
0	23390	4637	1
0	23399	4638	2
0	23442	4646	1
0	23452	4647	1
0	23465	4651	1
0	23497	4655	1
0	23530	4661	1
0	23549	4668	1
0	23574	4673	1
0	23636	4686	1
0	23648	4687	1
0	23701	4696	1
0	23713	4698	1
0	23724	4699	1
0	23738	4702	1
0	23791	4712	1
0	23803	4713	1
0	23837	4718	1
0	23856	4721	1
0	23871	4724	1
0	23882	4725	2
0	23899	4728	1
0	23963	4744	1
0	23979	4746	1
0	24026	4758	1
0	24035	4760	1
0	24059	4766	1
0	24144	4782	1
0	24155	4784	1
0	24207	4796	1
0	24244	4803	1
0	24253	4804	2
0	24265	4805	3
0	24344	4820	1
0	24366	4824	1
0	24376	4825	1
0	24387	4827	1
0	24406	4830	1
0	24423	4836	1
0	24465	4842	1
0	24477	4843	1
0	24487	4844	2
0	24499	4845	1
0	24566	4862	1
0	24586	4867	1
0	24620	4871	1
0	24691	4887	1
0	24717	4895	1
0	24746	4903	1
0	24777	4906	3
0	24794	4908	1
0	24853	4916	1
0	24897	4927	1
0	24925	4936	1
0	24947	4942	1
0	24954	4943	1
0	24961	4944	1
0	24981	4948	1
0	25062	4967	1
0	25076	4970	3
0	25091	4972	1
0	25102	4973	2
0	25112	4974	1
0	25136	4981	1
0	25193	4992	1
0	25200	4993	1
0	25230	4999	1
0	25241	5000	1
1	1993	400	0
1	2053	411	1
1	2053	411	0
1	2054	411	1
1	2063	412	0
1	2093	420	1
1	2093	420	0
1	2129	428	1
1	2129	428	0
1	2159	434	1
1	2159	434	0
1	2166	435	1
1	2169	435	0
1	2176	436	1
1	2185	437	2
1	2191	438	1
1	2196	439	2
1	2200	439	1
1	2210	440	0
1	2217	441	1
1	2221	441	0
1	2234	445	1
1	2234	445	0
1	2239	446	1
1	2241	446	0
1	2246	447	1
1	2250	447	0
1	2276	451	1
1	2276	451	0
1	2299	455	1
1	2299	455	0
1	2341	466	1
1	2341	466	0
1	2346	467	1
1	2350	468	2
1	2354	469	1
1	2360	470	0
1	2365	471	1
1	2368	471	0
1	2397	476	1
1	2397	476	0
1	2452	484	1
1	2452	484	0
1	2475	490	1
1	2475	490	0
1	2484	492	1
1	2484	492	0
1	2489	493	1
1	2491	493	0
1	2554	512	1
1	2554	512	0
1	2559	513	1
1	2561	513	0
1	2588	521	1
1	2588	521	0
1	2604	525	1
1	2604	525	0
1	2615	527	1
1	2615	527	0
1	2635	532	1
1	2635	532	0
1	2658	536	1
1	2658	536	0
1	2822	573	1
1	2822	573	0
1	2823	573	1
1	2829	574	0
1	2899	594	1
1	2899	594	0
1	2950	607	1
1	2950	607	0
1	2964	610	1
1	2964	610	0
1	2978	612	1
1	2986	613	0
1	3020	617	1
1	3020	617	0
1	3056	623	1
1	3056	623	0
1	3087	630	1
1	3087	630	0
1	3088	630	1
1	3098	631	0
1	3155	649	1
1	3155	649	0
1	3191	657	1
1	3191	657	0
1	3200	659	1
1	3200	659	0
1	3226	667	1
1	3226	667	0
1	3238	669	1
1	3238	669	0
1	3249	670	1
1	3257	671	2
1	3263	672	1
1	3272	673	0
1	3307	682	1
1	3307	682	0
1	3324	688	1
1	3324	688	0
1	3325	688	1
1	3333	689	0
1	3383	700	1
1	3383	700	0
1	3399	704	1
1	3399	704	0
1	3451	714	1
1	3451	714	0
1	3456	715	1
1	3458	715	0
1	3481	724	1
1	3481	724	0
1	3482	724	1
1	3497	727	0
1	3506	728	1
1	3508	728	0
1	3543	737	1
1	3543	737	0
1	3616	747	1
1	3616	747	0
1	3657	755	1
1	3657	755	0
1	3658	755	1
1	3659	755	2
1	3671	756	1
1	3680	757	2
1	3681	757	3
1	3684	757	2
1	3693	758	3
1	3695	758	2
1	3703	759	1
1	3711	760	0
1	3742	766	1
1	3742	766	0
1	3801	778	1
1	3801	778	0
1	3802	778	1
1	3810	779	0
1	3817	780	1
1	3821	780	0
1	3839	783	1
1	3839	783	0
1	3846	784	1
1	3848	784	0
1	3876	789	1
1	3876	789	0
1	3891	793	1
1	3891	793	0
1	3905	796	1
1	3905	796	0
1	3915	797	1
1	3917	797	0
1	4016	822	1
1	4016	822	0
1	4053	827	1
1	4053	827	0
1	4100	838	1
1	4100	838	0
1	4127	843	1
1	4127	843	0
1	4150	847	1
1	4150	847	0
1	4175	852	1
1	4175	852	0
1	4192	854	1
1	4192	854	0
1	4202	855	1
1	4205	855	0
1	4232	861	1
1	4232	861	0
1	4297	879	1
1	4297	879	0
1	4304	880	1
1	4316	882	0
1	4324	883	1
1	4326	883	0
1	4351	888	1
1	4351	888	0
1	4369	891	1
1	4369	891	0
1	4407	896	1
1	4407	896	0
1	4449	907	1
1	4449	907	0
1	4460	909	1
1	4460	909	0
1	4475	914	1
1	4475	914	0
1	4480	915	1
1	4482	915	0
1	4500	919	1
1	4500	919	0
1	4728	975	1
1	4728	975	0
1	4745	977	1
1	4745	977	0
1	4777	983	1
1	4777	983	0
1	4823	995	1
1	4823	995	0
1	4838	1000	1
1	4838	1000	0
1	4885	1007	1
1	4885	1007	0
1	4892	1008	1
1	4893	1008	2
1	4898	1008	1
1	4908	1009	0
1	4939	1013	1
1	4939	1013	0
1	4960	1016	1
1	4960	1016	0
1	4989	1020	1
1	4989	1020	0
1	5000	1023	1
1	5000	1023	0
1	5018	1027	1
1	5018	1027	0
1	5027	1029	1
1	5027	1029	0
1	5032	1030	1
1	5036	1030	0
1	5078	1037	1
1	5078	1037	0
1	5133	1050	1
1	5133	1050	0
1	5148	1052	1
1	5148	1052	0
1	5212	1068	1
1	5212	1068	0
1	5236	1071	1
1	5236	1071	0
1	5237	1071	1
1	5261	1074	0
1	5290	1078	1
1	5290	1078	0
1	5364	1091	1
1	5364	1091	0
1	5385	1093	1
1	5385	1093	0
1	5434	1100	1
1	5434	1100	0
1	5474	1107	1
1	5474	1107	0
1	5491	1109	1
1	5491	1109	0
1	5508	1114	1
1	5508	1114	0
1	5513	1115	1
1	5516	1115	0
1	5531	1118	1
1	5531	1118	0
1	5575	1127	1
1	5575	1127	0
1	5591	1130	1
1	5591	1130	0
1	5607	1133	1
1	5607	1133	0
1	5647	1143	1
1	5647	1143	0
1	5648	1143	1
1	5654	1144	0
1	5737	1163	1
1	5737	1163	0
1	5738	1163	1
1	5749	1164	0
1	5758	1165	1
1	5761	1165	0
1	5779	1167	1
1	5779	1167	0
1	5794	1169	1
1	5794	1169	0
1	5799	1170	1
1	5811	1172	0
1	5820	1173	1
1	5822	1173	0
1	5831	1174	1
1	5833	1174	0
1	5840	1175	1
1	5842	1175	0
1	5851	1177	1
1	5851	1177	0
1	5852	1177	1
1	5859	1178	0
1	5889	1186	1
1	5889	1186	0
1	5907	1190	1
1	5907	1190	0
1	5908	1190	1
1	5918	1191	2
1	5920	1191	1
1	5930	1192	0
1	5962	1202	1
1	5962	1202	0
1	6046	1219	1
1	6046	1219	0
1	6051	1220	1
1	6054	1220	0
1	6110	1231	1
1	6110	1231	0
1	6163	1238	1
1	6163	1238	0
1	6178	1240	1
1	6178	1240	0
1	6193	1245	1
1	6193	1245	0
1	6229	1253	1
1	6229	1253	0
1	6304	1271	1
1	6304	1271	0
1	6305	1271	1
1	6316	1272	0
1	6330	1274	1
1	6340	1275	0
1	6376	1281	1
1	6376	1281	0
1	6394	1283	1
1	6394	1283	0
1	6416	1286	1
1	6416	1286	0
1	6453	1292	1
1	6453	1292	0
1	6496	1301	1
1	6496	1301	0
1	6501	1302	1
1	6504	1302	0
1	6521	1306	1
1	6521	1306	0
1	6535	1308	1
1	6535	1308	0
1	6536	1308	1
1	6542	1309	0
1	6560	1313	1
1	6560	1313	0
1	6569	1314	1
1	6571	1314	0
1	6585	1316	1
1	6585	1316	0
1	6586	1316	1
1	6599	1317	0
1	6634	1321	1
1	6634	1321	0
1	6689	1330	1
1	6689	1330	0
1	6802	1359	1
1	6802	1359	0
1	6811	1360	1
1	6813	1360	0
1	6820	1361	1
1	6822	1361	0
1	6844	1365	1
1	6844	1365	0
1	6853	1366	1
1	6862	1368	0
1	6919	1380	1
1	6919	1380	0
1	6936	1385	1
1	6936	1385	0
1	6973	1392	1
1	6973	1392	0
1	6991	1395	1
1	6991	1395	0
1	7096	1415	1
1	7096	1415	0
1	7175	1433	1
1	7175	1433	0
1	7182	1434	1
1	7184	1434	0
1	7189	1435	1
1	7191	1435	0
1	7262	1448	1
1	7262	1448	0
1	7263	1448	1
1	7288	1451	0
1	7303	1453	1
1	7303	1453	0
1	7350	1465	1
1	7350	1465	0
1	7376	1468	1
1	7376	1468	0
1	7436	1477	1
1	7436	1477	0
1	7459	1481	1
1	7459	1481	0
1	7473	1483	1
1	7473	1483	0
1	7499	1487	1
1	7499	1487	0
1	7521	1492	1
1	7521	1492	0
1	7538	1494	1
1	7538	1494	0
1	7548	1495	1
1	7557	1497	0
1	7568	1500	1
1	7568	1500	0
1	7588	1502	1
1	7588	1502	0
1	7589	1502	1
1	7590	1502	2
1	7600	1503	1
1	7610	1504	0
1	7619	1505	1
1	7621	1505	0
1	7661	1515	1
1	7661	1515	0
1	7708	1523	1
1	7708	1523	0
1	7726	1525	1
1	7726	1525	0
1	7733	1526	1
1	7736	1526	0
1	7762	1530	1
1	7762	1530	0
1	7812	1547	1
1	7812	1547	0
1	7823	1548	1
1	7825	1548	0
1	7855	1553	1
1	7855	1553	0
1	7885	1558	1
1	7885	1558	0
1	7906	1562	1
1	7906	1562	0
1	8000	1578	1
1	8000	1578	0
1	8009	1580	1
1	8009	1580	0
1	8036	1586	1
1	8036	1586	0
1	8061	1596	1
1	8061	1596	0
1	8115	1611	1
1	8115	1611	0
1	8152	1621	1
1	8152	1621	0
1	8153	1621	1
1	8158	1622	2
1	8161	1622	1
1	8173	1623	0
1	8216	1633	1
1	8216	1633	0
1	8296	1653	1
1	8296	1653	0
1	8312	1656	1
1	8312	1656	0
1	8321	1658	1
1	8321	1658	0
1	8333	1660	1
1	8333	1660	0
1	8408	1684	1
1	8408	1684	0
1	8424	1689	1
1	8424	1689	0
1	8455	1693	1
1	8455	1693	0
1	8482	1698	1
1	8482	1698	0
1	8493	1701	1
1	8493	1701	0
1	8513	1706	1
1	8513	1706	0
1	8518	1707	1
1	8520	1707	0
1	8675	1742	1
1	8675	1742	0
1	8698	1747	1
1	8698	1747	0
1	8732	1754	1
1	8732	1754	0
1	8759	1759	1
1	8759	1759	0
1	8830	1774	1
1	8830	1774	0
1	8863	1778	1
1	8863	1778	0
1	8897	1785	1
1	8897	1785	0
1	8906	1787	1
1	8906	1787	0
1	8917	1790	1
1	8917	1790	0
1	8934	1792	1
1	8934	1792	0
1	8959	1796	1
1	8959	1796	0
1	8973	1798	1
1	8973	1798	0
1	9101	1822	1
1	9101	1822	0
1	9109	1823	1
1	9111	1823	0
1	9118	1824	1
1	9125	1826	0
1	9126	1826	1
1	9132	1827	0
1	9180	1839	1
1	9180	1839	0
1	9198	1841	1
1	9198	1841	0
1	9217	1843	1
1	9217	1843	0
1	9218	1843	1
1	9227	1844	0
1	9249	1848	1
1	9249	1848	0
1	9271	1854	1
1	9271	1854	0
1	9276	1855	1
1	9279	1855	0
1	9303	1858	1
1	9303	1858	0
1	9356	1871	1
1	9356	1871	0
1	9406	1881	1
1	9406	1881	0
1	9465	1889	1
1	9465	1889	0
1	9537	1904	1
1	9537	1904	0
1	9548	1907	1
1	9548	1907	0
1	9617	1919	1
1	9617	1919	0
1	9754	1943	1
1	9754	1943	0
1	9755	1943	1
1	9766	1944	0
1	9792	1950	1
1	9792	1950	0
1	9815	1954	1
1	9815	1954	0
1	9939	1982	1
1	9939	1982	0
1	9991	1989	1
1	9991	1989	0
1	10064	2002	1
1	10064	2002	0
1	10134	2017	1
1	10134	2017	0
1	10147	2021	1
1	10147	2021	0
1	10189	2032	1
1	10189	2032	0
1	10234	2042	1
1	10234	2042	0
1	10247	2046	1
1	10247	2046	0
1	10256	2048	1
1	10256	2048	0
1	10271	2053	1
1	10271	2053	0
1	10293	2057	1
1	10293	2057	0
1	10303	2058	1
1	10305	2058	0
1	10353	2069	1
1	10353	2069	0
1	10371	2071	1
1	10371	2071	0
1	10384	2074	1
1	10384	2074	0
1	10423	2086	1
1	10423	2086	0
1	10432	2088	1
1	10432	2088	0
1	10452	2093	1
1	10452	2093	0
1	10492	2099	1
1	10492	2099	0
1	10517	2104	1
1	10517	2104	0
1	10541	2107	1
1	10541	2107	0
1	10542	2107	1
1	10549	2108	0
1	10572	2111	1
1	10572	2111	0
1	10579	2112	1
1	10584	2112	0
1	10591	2113	1
1	10595	2113	0
1	10610	2115	1
1	10610	2115	0
1	10626	2118	1
1	10626	2118	0
1	10640	2120	1
1	10640	2120	0
1	10673	2128	1
1	10673	2128	0
1	10719	2139	1
1	10719	2139	0
1	10786	2154	1
1	10786	2154	0
1	10787	2154	1
1	10794	2155	0
1	10825	2159	1
1	10825	2159	0
1	10888	2168	1
1	10888	2168	0
1	10903	2170	1
1	10903	2170	0
1	10918	2175	1
1	10918	2175	0
1	10937	2178	1
1	10937	2178	0
1	10953	2180	1
1	10953	2180	0
1	10964	2183	1
1	10964	2183	0
1	11029	2199	1
1	11029	2199	0
1	11071	2204	1
1	11071	2204	0
1	11095	2209	1
1	11095	2209	0
1	11134	2218	1
1	11134	2218	0
1	11183	2227	1
1	11183	2227	0
1	11208	2230	1
1	11208	2230	0
1	11241	2236	1
1	11241	2236	0
1	11250	2238	1
1	11250	2238	0
1	11255	2239	1
1	11259	2239	0
1	11311	2252	1
1	11311	2252	0
1	11334	2254	1
1	11334	2254	0
1	11360	2257	1
1	11360	2257	0
1	11361	2257	1
1	11371	2258	2
1	11373	2258	1
1	11385	2259	0
1	11414	2263	1
1	11414	2263	0
1	11441	2268	1
1	11441	2268	0
1	11474	2273	1
1	11474	2273	0
1	11484	2274	1
1	11486	2274	0
1	11493	2275	1
1	11496	2275	0
1	11513	2277	1
1	11513	2277	0
1	11551	2283	1
1	11551	2283	0
1	11559	2284	1
1	11576	2286	0
1	11596	2290	1
1	11596	2290	0
1	11643	2301	1
1	11643	2301	0
1	11660	2307	1
1	11660	2307	0
1	11677	2309	1
1	11677	2309	0
1	11688	2311	1
1	11688	2311	0
1	11716	2320	1
1	11716	2320	0
1	11735	2327	1
1	11735	2327	0
1	11744	2329	1
1	11744	2329	0
1	11745	2329	1
1	11756	2330	0
1	11863	2348	1
1	11863	2348	0
1	11941	2360	1
1	11941	2360	0
1	11956	2362	1
1	11956	2362	0
1	11965	2364	1
1	11965	2364	0
1	11992	2370	1
1	11992	2370	0
1	12038	2378	1
1	12038	2378	0
1	12117	2396	1
1	12117	2396	0
1	12118	2396	1
1	12134	2397	0
1	12143	2398	1
1	12148	2398	0
1	12172	2401	1
1	12172	2401	0
1	12173	2401	1
1	12182	2402	2
1	12197	2404	1
1	12207	2405	0
1	12224	2408	1
1	12224	2408	0
1	12235	2411	1
1	12235	2411	0
1	12251	2414	1
1	12251	2414	0
1	12260	2415	1
1	12262	2415	0
1	12271	2416	1
1	12273	2416	0
1	12280	2417	1
1	12282	2417	0
1	12306	2424	1
1	12306	2424	0
1	12307	2424	1
1	12316	2425	2
1	12319	2425	1
1	12336	2427	2
1	12344	2428	1
1	12352	2429	0
1	12357	2430	1
1	12359	2430	0
1	12377	2434	1
1	12377	2434	0
1	12425	2443	1
1	12425	2443	0
1	12442	2449	1
1	12442	2449	0
1	12470	2456	1
1	12470	2456	0
1	12487	2459	1
1	12487	2459	0
1	12510	2463	1
1	12510	2463	0
1	12550	2469	1
1	12550	2469	0
1	12613	2484	1
1	12613	2484	0
1	12626	2488	1
1	12626	2488	0
1	12664	2493	1
1	12664	2493	0
1	12689	2497	1
1	12689	2497	0
1	12713	2504	1
1	12713	2504	0
1	12718	2505	1
1	12719	2505	2
1	12721	2505	1
1	12729	2506	0
1	12745	2508	1
1	12745	2508	0
1	12763	2510	1
1	12763	2510	0
1	12911	2548	1
1	12911	2548	0
1	12927	2550	1
1	12933	2551	0
1	12946	2555	1
1	12946	2555	0
1	12951	2556	1
1	12952	2556	2
1	12955	2556	1
1	12965	2557	0
1	13001	2566	1
1	13001	2566	0
1	13011	2567	1
1	13013	2567	0
1	13026	2570	1
1	13026	2570	0
1	13035	2572	1
1	13035	2572	0
1	13046	2575	1
1	13046	2575	0
1	13047	2575	1
1	13048	2575	2
1	13056	2576	1
1	13078	2579	0
1	13091	2582	1
1	13091	2582	0
1	13111	2588	1
1	13111	2588	0
1	13130	2590	1
1	13130	2590	0
1	13143	2593	1
1	13143	2593	0
1	13189	2601	1
1	13189	2601	0
1	13197	2602	1
1	13200	2602	0
1	13215	2604	1
1	13215	2604	0
1	13224	2606	1
1	13224	2606	0
1	13259	2616	1
1	13259	2616	0
1	13264	2617	1
1	13271	2619	0
1	13272	2619	1
1	13281	2620	0
1	13296	2624	1
1	13296	2624	0
1	13314	2628	1
1	13314	2628	0
1	13329	2630	1
1	13329	2630	0
1	13330	2630	1
1	13339	2631	2
1	13341	2631	1
1	13351	2632	0
1	13371	2634	1
1	13371	2634	0
1	13407	2642	1
1	13407	2642	0
1	13449	2647	1
1	13449	2647	0
1	13466	2649	1
1	13474	2650	0
1	13475	2650	1
1	13485	2651	0
1	13503	2653	1
1	13503	2653	0
1	13566	2671	1
1	13566	2671	0
1	13590	2678	1
1	13590	2678	0
1	13591	2678	1
1	13600	2679	0
1	13650	2694	1
1	13650	2694	0
1	13670	2696	1
1	13670	2696	0
1	13671	2696	1
1	13682	2697	0
1	13699	2700	1
1	13699	2700	0
1	13704	2701	1
1	13712	2702	2
1	13713	2702	3
1	13721	2703	2
1	13734	2704	1
1	13744	2705	0
1	13778	2710	1
1	13778	2710	0
1	13779	2710	1
1	13787	2711	0
1	13803	2714	1
1	13803	2714	0
1	13835	2721	1
1	13835	2721	0
1	13886	2733	1
1	13886	2733	0
1	13956	2753	1
1	13956	2753	0
1	13967	2756	1
1	13967	2756	0
1	13978	2758	1
1	13984	2759	0
1	14086	2785	1
1	14086	2785	0
1	14099	2787	1
1	14099	2787	0
1	14168	2799	1
1	14168	2799	0
1	14185	2802	1
1	14185	2802	0
1	14224	2809	1
1	14224	2809	0
1	14245	2813	1
1	14245	2813	0
1	14259	2815	1
1	14259	2815	0
1	14260	2815	1
1	14270	2816	2
1	14272	2816	1
1	14281	2817	0
1	14293	2819	1
1	14294	2819	2
1	14301	2820	1
1	14311	2821	2
1	14313	2821	1
1	14321	2822	0
1	14342	2826	1
1	14342	2826	0
1	14355	2829	1
1	14355	2829	0
1	14383	2838	1
1	14383	2838	0
1	14395	2840	1
1	14395	2840	0
1	14450	2847	1
1	14450	2847	0
1	14507	2861	1
1	14507	2861	0
1	14539	2871	1
1	14539	2871	0
1	14614	2894	1
1	14614	2894	0
1	14651	2905	1
1	14651	2905	0
1	14665	2907	1
1	14665	2907	0
1	14712	2913	1
1	14712	2913	0
1	14734	2916	1
1	14734	2916	0
1	14743	2917	1
1	14746	2917	0
1	14755	2918	1
1	14757	2918	0
1	14778	2921	1
1	14778	2921	0
1	14793	2925	1
1	14793	2925	0
1	14810	2931	1
1	14810	2931	0
1	14822	2934	1
1	14822	2934	0
1	14863	2947	1
1	14863	2947	0
1	14904	2955	1
1	14904	2955	0
1	14923	2958	1
1	14923	2958	0
1	14930	2959	1
1	14932	2959	0
1	14962	2967	1
1	14962	2967	0
1	15026	2976	1
1	15026	2976	0
1	15035	2977	1
1	15037	2977	0
1	15066	2986	1
1	15066	2986	0
1	15071	2987	1
1	15074	2987	0
1	15086	2989	1
1	15090	2990	0
1	15108	2995	1
1	15108	2995	0
1	15138	3004	1
1	15138	3004	0
1	15159	3007	1
1	15159	3007	0
1	15337	3046	1
1	15337	3046	0
1	15371	3053	1
1	15371	3053	0
1	15388	3055	1
1	15388	3055	0
1	15406	3058	1
1	15406	3058	0
1	15417	3061	1
1	15417	3061	0
1	15422	3062	1
1	15424	3062	0
1	15432	3064	1
1	15436	3065	0
1	15486	3075	1
1	15486	3075	0
1	15497	3078	1
1	15497	3078	0
1	15540	3087	1
1	15540	3087	0
1	15556	3090	1
1	15556	3090	0
1	15589	3099	1
1	15589	3099	0
1	15607	3101	1
1	15607	3101	0
1	15616	3102	1
1	15620	3102	0
1	15708	3116	1
1	15708	3116	0
1	15725	3118	1
1	15725	3118	0
1	15762	3125	1
1	15762	3125	0
1	15767	3126	1
1	15770	3126	0
1	15785	3129	1
1	15785	3129	0
1	15810	3135	1
1	15810	3135	0
1	15821	3137	1
1	15821	3137	0
1	15842	3141	1
1	15842	3141	0
1	15843	3141	1
1	15852	3142	0
1	15859	3143	1
1	15860	3143	2
1	15865	3143	1
1	15875	3144	0
1	15880	3145	1
1	15882	3145	0
1	15887	3146	1
1	15891	3147	2
1	15895	3148	1
1	15902	3149	0
1	15915	3151	1
1	15915	3151	0
1	15933	3155	1
1	15933	3155	0
1	15956	3159	1
1	15956	3159	0
1	15967	3162	1
1	15967	3162	0
1	15968	3162	1
1	15969	3162	2
1	15975	3163	1
1	15980	3164	2
1	15982	3164	1
1	15988	3165	0
1	16009	3169	1
1	16009	3169	0
1	16104	3200	1
1	16104	3200	0
1	16112	3201	1
1	16115	3201	0
1	16133	3203	1
1	16133	3203	0
1	16146	3206	1
1	16146	3206	0
1	16155	3208	1
1	16155	3208	0
1	16184	3213	1
1	16184	3213	0
1	16231	3219	1
1	16231	3219	0
1	16240	3220	1
1	16242	3220	0
1	16268	3227	1
1	16268	3227	0
1	16279	3230	1
1	16279	3230	0
1	16280	3230	1
1	16301	3233	0
1	16322	3237	1
1	16322	3237	0
1	16336	3239	1
1	16336	3239	0
1	16356	3243	1
1	16356	3243	0
1	16364	3244	1
1	16367	3244	0
1	16384	3247	1
1	16384	3247	0
1	16401	3249	1
1	16401	3249	0
1	16427	3256	1
1	16427	3256	0
1	16432	3257	1
1	16434	3257	0
1	16478	3269	1
1	16478	3269	0
1	16499	3274	1
1	16499	3274	0
1	16500	3274	1
1	16509	3275	0
1	16527	3279	1
1	16527	3279	0
1	16543	3282	1
1	16543	3282	0
1	16584	3294	1
1	16584	3294	0
1	16610	3303	1
1	16610	3303	0
1	16627	3308	1
1	16627	3308	0
1	16647	3313	1
1	16647	3313	0
1	16652	3314	1
1	16654	3314	0
1	16694	3320	1
1	16694	3320	0
1	16695	3320	1
1	16708	3323	0
1	16722	3325	1
1	16722	3325	0
1	16752	3330	1
1	16752	3330	0
1	16807	3341	1
1	16807	3341	0
1	16843	3348	1
1	16843	3348	0
1	16854	3349	1
1	16859	3349	0
1	16934	3362	1
1	16934	3362	0
1	16961	3367	1
1	16961	3367	0
1	16989	3371	1
1	16989	3371	0
1	16998	3373	1
1	16998	3373	0
1	17013	3376	1
1	17013	3376	0
1	17029	3378	1
1	17029	3378	0
1	17052	3382	1
1	17052	3382	0
1	17141	3404	1
1	17141	3404	0
1	17146	3405	1
1	17148	3405	0
1	17191	3415	1
1	17191	3415	0
1	17204	3418	1
1	17204	3418	0