version 3
run Experimentos-690-20260514-09:21:30-6877
attr configname Experimentos
attr datetime 20260514-09:21:30
attr datetimef 20260514-092130
attr experiment Experimentos
attr inifile TwoQueues.ini
attr iterationvars "$p=0.7, $q=0.2, $Y=30, $m=4"
attr iterationvarsd p=0.7/q=0.2/Y=30/m=4
attr iterationvarsf p=0.7,q=0.2,Y=30,m=4-
attr measurement "$p=0.7, $q=0.2, $Y=30, $m=4"
attr network TwoQueues
attr processid 6877
attr repetition 10
attr replication #10
attr resultdir results
attr runnumber 690
attr seedset 690
itervar Y 30
itervar m 4
itervar p 0.7
itervar q 0.2
config description "Barrido completo de parámetros Proyecto 12"
config **.source1.p 0.7
config **.source1.q 0.2
config **.source2.p 0.6
config **.source2.q 0.2
config **.serverWithMaintenance.Y 30
config **.serverWithMaintenance.m 4
config network TwoQueues
config cpu-time-limit 5000s
config sim-time-limit 5000s
config warmup-period 400s
config repeat 20
config output-scalar-file results/Experimentos-p=0.7,q=0.2,Y=30,m=4--#10.sca
config output-vector-file results/Experimentos-p=0.7,q=0.2,Y=30,m=4--#10.vec
config **.vector-recording true

vector 0 TwoQueues.serverWithMaintenance residenceTime2:vector ETV
attr recordingmode vector
attr source delay2
attr title "Residence Time Class 2"
vector 1 TwoQueues.queue2 queueLengthStats:vector ETV
attr recordingmode vector
attr source qlen
attr title "Average Queue Length"
vector 2 TwoQueues.queue1 queueLengthStats:vector ETV
attr recordingmode vector
attr source qlen
attr title "Average Queue Length"
vector 3 TwoQueues.server residenceTime1:vector ETV
attr recordingmode vector
attr source delay1
attr title "Residence Time Class 1"
vector 4 TwoQueues.server throughputStats1:vector ETV
attr recordingmode vector
attr source throughput1
attr title "Throughput Class 1"
0	2039	400	1
0	2061	406	1
0	2084	415	1
0	2091	416	1
0	2194	439	1
0	2206	441	1
0	2229	447	1
0	2293	464	1
0	2311	467	1
0	2337	471	1
0	2350	474	1
0	2366	478	1
0	2379	481	1
0	2394	484	1
0	2405	485	2
0	2443	494	1
0	2451	495	1
0	2460	496	2
0	2536	508	1
0	2548	510	1
0	2575	516	1
0	2612	521	1
0	2662	530	1
0	2711	543	1
0	2741	547	1
0	2810	560	1
0	2826	562	1
0	2872	571	1
0	2879	572	1
0	2909	576	1
0	2937	582	1
0	2955	585	1
0	2980	592	1
0	2986	593	2
0	2999	596	1
0	3015	600	1
0	3050	607	1
0	3073	611	1
0	3097	617	1
0	3118	621	1
0	3128	622	2
0	3205	636	1
0	3222	638	1
0	3276	655	1
0	3315	662	1
0	3322	663	1
0	3353	670	1
0	3433	687	1
0	3444	688	1
0	3454	689	1
0	3480	694	1
0	3491	695	2
0	3501	696	2
0	3548	706	1
0	3564	709	1
0	3580	712	1
0	3590	713	1
0	3621	720	1
0	3648	725	1
0	3710	747	1
0	3721	750	1
0	3733	753	1
0	3742	754	2
0	3791	766	1
0	3800	767	2
0	3809	769	1
0	3832	774	4
0	3846	777	1
0	3853	778	1
0	3878	783	1
0	3896	786	1
0	3930	794	1
0	3954	801	1
0	3969	806	1
0	3976	807	1
0	3985	809	1
0	3995	811	1
0	4001	812	2
0	4021	817	1
0	4078	830	1
0	4088	831	2
0	4181	845	1
0	4198	847	1
0	4218	849	1
0	4234	851	1
0	4313	868	1
0	4323	869	1
0	4355	874	1
0	4376	881	1
0	4386	882	1
0	4395	884	1
0	4416	889	1
0	4423	890	2
0	4429	891	2
0	4482	904	1
0	4551	917	1
0	4589	922	2
0	4608	925	1
0	4632	928	1
0	4657	932	1
0	4667	933	1
0	4689	937	1
0	4703	940	1
0	4712	942	1
0	4723	943	1
0	4756	948	1
0	4788	957	1
0	4798	958	2
0	4806	959	2
0	4822	961	1
0	4832	962	1
0	4849	968	1
0	4895	977	1
0	4904	978	2
0	4926	984	1
0	4936	985	1
0	4950	987	1
0	4959	988	2
0	5021	999	1
0	5058	1005	1
0	5067	1007	1
0	5083	1009	1
0	5126	1015	1
0	5224	1034	1
0	5250	1037	1
0	5278	1040	1
0	5334	1047	1
0	5344	1048	2
0	5355	1049	1
0	5371	1051	1
0	5426	1065	1
0	5475	1074	1
0	5491	1076	1
0	5498	1077	1
0	5540	1084	1
0	5654	1110	1
0	5698	1117	1
0	5707	1119	1
0	5767	1129	1
0	5784	1131	1
0	5814	1135	1
0	5821	1136	1
0	5839	1139	1
0	5849	1140	1
0	5856	1141	1
0	5918	1151	1
0	5966	1161	1
0	6050	1178	1
0	6058	1179	1
0	6064	1180	2
0	6080	1182	1
0	6152	1204	1
0	6226	1221	1
0	6254	1224	1
0	6264	1225	2
0	6275	1226	1
0	6335	1245	1
0	6342	1246	1
0	6358	1248	1
0	6381	1253	1
0	6409	1262	1
0	6420	1264	1
0	6443	1268	1
0	6481	1278	1
0	6520	1283	1
0	6547	1286	1
0	6580	1292	1
0	6586	1293	2
0	6593	1294	1
0	6619	1302	1
0	6649	1307	1
0	6657	1308	1
0	6669	1309	2
0	6762	1326	1
0	6773	1328	1
0	6802	1333	1
0	6811	1334	2
0	6830	1337	1
0	6836	1338	2
0	6872	1346	1
0	6890	1350	1
0	6930	1360	1
0	6964	1367	1
0	6978	1370	1
0	6989	1371	1
0	7024	1378	1
0	7042	1383	6
0	7107	1400	1
0	7113	1401	2
0	7138	1408	1
0	7147	1409	2
0	7190	1417	1
0	7207	1419	1
0	7299	1440	1
0	7354	1448	1
0	7364	1449	1
0	7377	1452	1
0	7394	1454	1
0	7412	1457	1
0	7423	1458	1
0	7433	1459	2
0	7448	1461	1
0	7461	1464	1
0	7478	1466	1
0	7502	1473	1
0	7530	1482	1
0	7541	1485	1
0	7581	1495	1
0	7604	1498	1
0	7628	1501	1
0	7677	1512	1
0	7687	1513	1
0	7723	1521	1
0	7744	1524	1
0	7754	1525	1
0	7776	1530	1
0	7807	1535	4
0	7817	1536	5
0	7859	1542	1
0	7895	1549	1
0	7932	1554	1
0	7942	1555	1
0	7954	1557	1
0	7982	1560	1
0	7996	1561	1
0	8081	1576	1
0	8129	1591	1
0	8136	1592	1
0	8143	1593	1
0	8153	1594	1
0	8171	1597	1
0	8181	1598	1
0	8210	1603	1
0	8256	1612	1
0	8265	1614	1
0	8287	1620	1
0	8306	1623	1
0	8373	1632	1
0	8383	1633	1
0	8404	1636	1
0	8411	1637	1
0	8445	1644	1
0	8463	1646	1
0	8494	1651	1
0	8504	1653	1
0	8511	1654	2
0	8533	1659	6
0	8539	1660	4
0	8546	1661	3
0	8552	1662	2
0	8570	1665	1
0	8580	1666	1
0	8589	1668	1
0	8625	1674	1
0	8647	1677	1
0	8679	1686	1
0	8730	1696	1
0	8760	1704	1
0	8771	1705	1
0	8787	1707	1
0	8796	1709	1
0	8803	1710	1
0	8851	1724	1
0	8953	1745	1
0	9021	1759	1
0	9065	1767	1
0	9105	1772	1
0	9116	1773	1
0	9150	1781	1
0	9179	1787	1
0	9221	1793	1
0	9242	1796	1
0	9264	1799	1
0	9273	1800	2
0	9284	1802	1
0	9370	1821	1
0	9388	1826	5
0	9395	1827	5
0	9401	1828	5
0	9407	1829	3
0	9429	1835	1
0	9442	1838	1
0	9456	1839	1
0	9478	1842	1
0	9506	1851	1
0	9523	1857	1
0	9589	1869	1
0	9629	1875	1
0	9719	1890	1
0	9786	1906	1
0	9796	1907	1
0	9887	1925	1
0	9905	1927	1
0	9983	1941	1
0	9995	1943	1
0	10024	1949	1
0	10037	1950	1
0	10049	1951	1
0	10065	1953	1
0	10099	1965	1
0	10112	1969	1
0	10119	1970	1
0	10139	1975	1
0	10158	1978	1
0	10204	1987	1
0	10210	1988	2
0	10245	1993	2
0	10255	1994	3
0	10284	2002	1
0	10318	2008	1
0	10330	2010	1
0	10344	2012	1
0	10362	2016	1
0	10383	2019	1
0	10392	2021	1
0	10403	2022	1
0	10454	2032	1
0	10475	2035	1
0	10529	2047	1
0	10540	2050	1
0	10547	2051	1
0	10554	2052	1
0	10563	2054	1
0	10602	2063	1
0	10608	2064	2
0	10619	2067	1
0	10629	2068	1
0	10657	2076	1
0	10668	2078	1
0	10686	2080	1
0	10692	2081	2
0	10758	2099	1
0	10784	2106	1
0	10805	2109	1
0	10836	2118	1
0	10852	2121	1
0	10892	2126	4
0	10901	2127	4
0	10907	2128	3
0	10917	2130	1
0	10926	2131	2
0	10944	2134	1
0	10984	2139	1
0	10994	2140	2
0	11022	2143	1
0	11068	2151	1
0	11079	2154	1
0	11105	2162	1
0	11135	2166	1
0	11165	2172	1
0	11342	2218	1
0	11370	2225	1
0	11410	2231	1
0	11420	2232	1
0	11449	2238	1
0	11476	2245	1
0	11489	2249	1
0	11506	2255	1
0	11519	2259	1
0	11526	2260	1
0	11533	2261	1
0	11554	2265	1
0	11572	2267	1
0	11601	2275	1
0	11617	2277	1
0	11647	2284	1
0	11715	2298	1
0	11732	2300	1
0	11743	2303	1
0	11759	2306	1
0	11784	2311	1
0	11791	2312	1
0	11840	2324	1
0	11849	2326	1
0	11862	2330	1
0	11886	2337	1
0	11893	2338	1
0	11924	2343	1
0	11930	2344	2
0	11977	2355	1
0	11993	2358	1
0	12007	2361	1
0	12039	2365	1
0	12056	2367	1
0	12063	2368	1
0	12078	2373	1
0	12085	2374	1
0	12109	2377	1
0	12155	2386	1
0	12161	2387	2
0	12175	2390	1
0	12195	2392	1
0	12205	2393	2
0	12230	2399	1
0	12247	2405	1
0	12258	2408	1
0	12368	2431	1
0	12414	2440	1
0	12420	2441	2
0	12440	2446	1
0	12490	2457	1
0	12516	2460	1
0	12563	2466	1
0	12581	2468	1
0	12593	2470	1
0	12665	2486	1
0	12726	2499	1
0	12793	2512	1
0	12825	2516	1
0	12844	2518	1
0	12885	2525	1
0	12895	2526	1
0	12916	2530	1
0	12939	2533	1
0	12963	2538	1
0	13014	2548	1
0	13021	2549	1
0	13049	2558	1
0	13058	2560	1
0	13073	2565	1
0	13091	2569	1
0	13103	2571	1
0	13141	2579	1
0	13165	2585	1
0	13193	2590	1
0	13204	2593	1
0	13235	2598	5
0	13245	2599	5
0	13256	2600	1
0	13279	2605	1
0	13287	2606	1
0	13293	2607	2
0	13344	2615	1
0	13353	2617	1
0	13404	2630	1
0	13421	2636	1
0	13464	2645	1
0	13515	2656	1
0	13524	2657	2
0	13530	2658	3
0	13538	2659	1
0	13547	2660	2
0	13558	2662	1
0	13573	2666	1
0	13594	2668	1
0	13604	2669	2
0	13664	2680	1
0	13708	2691	1
0	13729	2695	1
0	13745	2699	1
0	13825	2718	1
0	13869	2724	1
0	13897	2729	1
0	13958	2742	1
0	14024	2757	1
0	14030	2758	2
0	14090	2766	1
0	14116	2773	1
0	14133	2779	1
0	14146	2783	1
0	14155	2785	1
0	14181	2793	1
0	14196	2798	1
0	14229	2807	1
0	14237	2808	1
0	14247	2809	2
0	14349	2837	1
0	14360	2839	1
0	14386	2848	1
0	14397	2850	1
0	14420	2854	1
0	14436	2857	1
0	14451	2859	1
0	14460	2860	2
0	14513	2874	1
0	14602	2895	1
0	14637	2906	1
0	14644	2907	1
0	14717	2921	1
0	14728	2922	1
0	14768	2927	1
0	14785	2929	1
0	14797	2930	1
0	14880	2945	1
0	14905	2951	1
0	14924	2953	1
0	14957	2958	1
0	14980	2961	1
0	15004	2968	1
0	15034	2974	1
0	15075	2982	1
0	15086	2983	1
0	15129	2989	1
0	15160	2993	1
0	15190	2997	1
0	15205	3001	1
0	15232	3005	1
0	15238	3006	2
0	15251	3009	1
0	15261	3010	1
0	15281	3014	1
0	15295	3016	1
0	15310	3019	1
0	15319	3020	2
0	15378	3030	1
0	15391	3031	1
0	15407	3033	1
0	15416	3035	1
0	15427	3038	1
0	15443	3042	1
0	15474	3048	1
0	15486	3050	1
0	15506	3055	1
0	15526	3059	1
0	15595	3072	1
0	15636	3080	1
0	15679	3090	1
0	15701	3096	1
0	15758	3108	1
0	15773	3112	1
0	15785	3114	1
0	15794	3116	1
0	15825	3125	1
0	15877	3134	1
0	15898	3137	1
0	15908	3138	1
0	15924	3142	1
0	15935	3143	1
0	15954	3145	1
0	15983	3153	1
0	15995	3156	1
0	16001	3157	2
0	16031	3162	1
0	16043	3164	1
0	16073	3168	1
0	16096	3172	1
0	16145	3184	1
0	16172	3189	1
0	16191	3191	1
0	16281	3203	1
0	16368	3223	1
0	16412	3230	1
0	16430	3235	1
0	16468	3243	1
0	16488	3247	1
0	16535	3259	1
0	16583	3269	1
0	16595	3271	1
0	16616	3275	1
0	16632	3277	1
0	16693	3288	1
0	16726	3295	1
0	16769	3303	1
0	16794	3306	1
0	16820	3311	1
0	16856	3319	1
0	16907	3332	1
0	16914	3333	1
0	16981	3344	1
0	17045	3357	1
0	17106	3369	1
0	17140	3376	1
0	17147	3377	1
0	17172	3382	1
0	17197	3387	1
0	17224	3392	1
0	17249	3398	1
0	17256	3399	1
0	17288	3405	1
0	17317	3412	1
0	17364	3422	1
0	17390	3427	1
0	17414	3430	1
0	17421	3431	2
0	17430	3432	2
0	17444	3434	1
0	17473	3439	6
0	17484	3440	3
0	17494	3441	2
0	17503	3442	1
0	17564	3461	1
0	17580	3463	1
0	17596	3466	1
0	17610	3468	1
0	17821	3516	1
0	17841	3520	1
0	17860	3523	1
0	17909	3540	1
0	17916	3541	1
0	17925	3543	1
0	17963	3551	1
0	17974	3552	1
0	17980	3553	2
0	17989	3555	1
0	17996	3556	1
0	18003	3557	1
0	18040	3564	1
0	18065	3568	1
0	18086	3571	1
0	18156	3586	1
0	18166	3588	1
0	18172	3589	2
0	18291	3610	1
0	18367	3620	1
0	18378	3621	1
0	18394	3624	1
0	18436	3632	1
0	18446	3633	1
0	18453	3634	1
0	18460	3635	1
0	18470	3636	1
0	18482	3637	1
0	18522	3646	1
0	18596	3663	1
0	18605	3665	1
0	18676	3678	1
0	18694	3682	1
0	18703	3684	1
0	18712	3685	1
0	18725	3686	2
0	18737	3687	3
0	18748	3688	3
0	18760	3689	4
0	18772	3690	2
0	18786	3691	3
0	18796	3692	3
0	18813	3694	1
0	18831	3696	1
0	18855	3699	1
0	18889	3707	1
0	18946	3717	1
0	18990	3724	1
0	19049	3732	1
0	19080	3736	1
0	19092	3737	1
0	19135	3743	1
0	19167	3748	3
0	19174	3749	1
0	19191	3754	1
0	19251	3764	1
0	19277	3768	1
0	19308	3776	1
0	19332	3783	1
0	19347	3788	1
0	19363	3790	1
0	19373	3791	1
0	19396	3795	1
0	19423	3801	1
0	19439	3803	1
0	19492	3814	1
0	19517	3819	1
0	19535	3822	1
0	19544	3824	1
0	19551	3825	1
0	19561	3826	1
0	19588	3830	1
0	19645	3841	1
0	19673	3846	1
0	19685	3848	1
0	19694	3849	2
0	19737	3855	1
0	19801	3865	1
0	19808	3866	1
0	19825	3871	1
0	19854	3875	1
0	19865	3876	1
0	19909	3885	1
0	19983	3895	1
0	19995	3896	1
0	20110	3913	1
0	20152	3922	1
0	20158	3923	2
0	20168	3924	1
0	20195	3930	1
0	20213	3932	1
0	20246	3936	1
0	20265	3939	1
0	20280	3943	1
0	20292	3945	1
0	20413	3978	1
0	20427	3980	1
0	20442	3984	1
0	20452	3985	1
0	20475	3989	1
0	20501	3996	1
0	20568	4008	1
0	20588	4013	1
0	20624	4020	1
0	20652	4025	1
0	20662	4026	1
0	20680	4029	1
0	20690	4030	2
0	20736	4037	1
0	20767	4042	1
0	20778	4043	1
0	20824	4051	1
0	20863	4059	1
0	20882	4062	1
0	20909	4069	1
0	20925	4071	1
0	20946	4079	1
0	20959	4083	1
0	20976	4088	1
0	20995	4090	1
0	21007	4091	1
0	21021	4094	1
0	21046	4098	1
0	21066	4104	1
0	21096	4113	1
0	21144	4123	1
0	21167	4127	1
0	21182	4131	1
0	21206	4134	1
0	21244	4143	1
0	21251	4144	1
0	21326	4158	1
0	21338	4160	1
0	21345	4161	1
0	21357	4163	1
0	21393	4169	1
0	21399	4170	2
0	21405	4171	3
0	21424	4174	1
0	21446	4178	1
0	21458	4180	1
0	21469	4183	1
0	21532	4204	1
0	21548	4207	1
0	21564	4210	1
0	21605	4223	1
0	21616	4225	1
0	21635	4229	1
0	21653	4231	1
0	21667	4234	1
0	21694	4240	1
0	21724	4247	1
0	21730	4248	2
0	21781	4256	1
0	21788	4257	1
0	21820	4264	1
0	21855	4268	1
0	21885	4273	1
0	21898	4276	1
0	21908	4277	1
0	21915	4278	1
0	21956	4286	1
0	22052	4307	1
0	22085	4313	1
0	22095	4314	1
0	22131	4326	1
0	22141	4327	1
0	22151	4328	1
0	22164	4329	2
0	22175	4330	1
0	22186	4331	1
0	22215	4338	1
0	22244	4343	1
0	22253	4344	2
0	22296	4352	1
0	22317	4356	1
0	22355	4361	1
0	22386	4367	1
0	22428	4373	1
0	22463	4378	1
0	22475	4379	1
0	22505	4385	1
0	22552	4393	1
0	22558	4394	2
0	22581	4398	1
0	22640	4411	1
0	22656	4413	1
0	22672	4418	1
0	22678	4419	2
0	22709	4426	1
0	22734	4431	1
0	22753	4434	1
0	22760	4435	1
0	22774	4437	1
0	22787	4438	1
0	22824	4443	1
0	22925	4464	1
0	22951	4467	1
0	22972	4471	1
0	22985	4474	1
0	23004	4476	1
0	23032	4480	1
0	23057	4485	4
0	23064	4486	2
0	23071	4487	2
0	23080	4488	2
0	23091	4490	1
0	23098	4491	1
0	23163	4511	1
0	23177	4515	1
0	23189	4516	2
0	23221	4522	1
0	23227	4523	2
0	23238	4525	1
0	23252	4528	1
0	23259	4529	1
0	23286	4535	1
0	23309	4538	1
0	23321	4539	1
0	23335	4540	1
0	23346	4541	2
0	23358	4542	3
0	23431	4556	1
0	23458	4561	1
0	23476	4564	1
0	23486	4565	1
0	23509	4569	1
0	23538	4576	1
0	23556	4580	1
0	23563	4581	1
0	23570	4582	1
0	23579	4584	1
0	23615	4594	1
0	23634	4597	1
0	23652	4600	1
0	23670	4604	1
0	23690	4609	1
0	23765	4630	1
0	23775	4631	2
0	23784	4632	2
0	23818	4638	1
0	23835	4640	1
0	23890	4654	1
0	23945	4669	1
0	23980	4675	1
0	23989	4676	2
0	24033	4684	1
0	24058	4687	1
0	24082	4691	1
0	24094	4692	2
0	24129	4701	1
0	24167	4710	1
0	24174	4711	1
0	24184	4712	1
0	24218	4719	1
0	24227	4720	2
0	24235	4721	1
0	24241	4722	2
0	24254	4724	1
0	24264	4725	2
0	24282	4730	1
0	24289	4731	1
0	24318	4737	1
0	24393	4749	1
0	24403	4750	1
0	24443	4759	1
0	24462	4763	1
0	24473	4764	2
0	24489	4767	1
0	24499	4768	1
0	24506	4769	1
0	24549	4777	1
0	24565	4781	1
0	24592	4787	1
0	24610	4789	1
0	24704	4804	1
0	24715	4805	2
0	24736	4808	1
0	24785	4820	1
0	24802	4822	1
0	24834	4827	1
0	24859	4833	1
0	24900	4839	1
0	24957	4847	1
0	25024	4868	1
0	25049	4873	1
0	25067	4876	1
0	25087	4878	1
0	25126	4883	1
0	25140	4885	1
0	25152	4887	1
0	25211	4899	1
0	25233	4904	4
0	25239	4905	2
0	25247	4906	1
0	25254	4907	2
0	25263	4908	2
0	25272	4909	1
0	25287	4914	1
0	25296	4916	1
0	25314	4920	1
0	25328	4922	1
0	25386	4936	1
0	25397	4939	1
0	25443	4946	1
0	25465	4951	1
0	25478	4952	2
0	25490	4953	2
0	25500	4954	3
0	25510	4955	3
0	25516	4956	2
0	25569	4965	1
0	25646	4986	1
0	25662	4989	1
0	25677	4991	1
0	25683	4992	2
0	25727	5000	1
1	2057	405	1
1	2057	405	0
1	2080	414	1
1	2080	414	0
1	2085	415	1
1	2087	415	0
1	2188	438	1
1	2188	438	0
1	2202	440	1
1	2202	440	0
1	2225	446	1
1	2225	446	0
1	2289	463	1
1	2289	463	0
1	2303	466	1
1	2303	466	0
1	2333	470	1
1	2333	470	0
1	2344	473	1
1	2344	473	0
1	2362	477	1
1	2362	477	0
1	2373	480	1
1	2373	480	0
1	2389	483	1
1	2389	483	0
1	2390	483	1
1	2399	484	0
1	2437	493	1
1	2437	493	0
1	2444	494	1
1	2445	494	2
1	2447	494	1
1	2454	495	0
1	2532	507	1
1	2532	507	0
1	2541	509	1
1	2541	509	0
1	2568	515	1
1	2568	515	0
1	2606	520	1
1	2606	520	0
1	2655	529	1
1	2655	529	0
1	2700	542	1
1	2700	542	0
1	2734	546	1
1	2734	546	0
1	2806	559	1
1	2806	559	0
1	2818	561	1
1	2818	561	0
1	2868	570	1
1	2868	570	0
1	2873	571	1
1	2875	571	0
1	2901	575	1
1	2901	575	0
1	2929	581	1
1	2929	581	0
1	2951	584	1
1	2951	584	0
1	2975	591	1
1	2975	591	0
1	2976	591	1
1	2982	592	0
1	2993	595	1
1	2993	595	0
1	3011	599	1
1	3011	599	0
1	3044	606	1
1	3044	606	0
1	3067	610	1
1	3067	610	0
1	3091	616	1
1	3091	616	0
1	3109	620	1
1	3109	620	0
1	3110	620	1
1	3121	621	0
1	3199	635	1
1	3199	635	0
1	3216	637	1
1	3216	637	0
1	3272	654	1
1	3272	654	0
1	3309	661	1
1	3309	661	0
1	3316	662	1
1	3318	662	0
1	3345	669	1
1	3345	669	0
1	3425	686	1
1	3425	686	0
1	3435	687	1
1	3437	687	0
1	3446	688	1
1	3448	688	0
1	3468	693	1
1	3468	693	0
1	3469	693	1
1	3482	694	2
1	3484	694	1
1	3494	695	0
1	3544	705	1
1	3544	705	0
1	3560	708	1
1	3560	708	0
1	3574	711	1
1	3574	711	0
1	3581	712	1
1	3584	712	0
1	3617	719	1
1	3617	719	0
1	3641	724	1
1	3641	724	0
1	3706	746	1
1	3706	746	0
1	3717	749	1
1	3717	749	0
1	3728	752	1
1	3728	752	0
1	3729	752	1
1	3736	753	0
1	3783	765	1
1	3783	765	0
1	3784	765	1
1	3794	766	0
1	3805	768	1
1	3805	768	0
1	3816	770	1
1	3826	773	0
1	3842	776	1
1	3842	776	0
1	3847	777	1
1	3849	777	0
1	3874	782	1
1	3874	782	0
1	3890	785	1
1	3890	785	0
1	3926	793	1
1	3926	793	0
1	3950	800	1
1	3950	800	0
1	3965	805	1
1	3965	805	0
1	3970	806	1
1	3972	806	0
1	3981	808	1
1	3981	808	0
1	3990	810	1
1	3990	810	0
1	3991	810	1
1	3997	811	0
1	4017	816	1
1	4017	816	0
1	4068	829	1
1	4068	829	0
1	4069	829	1
1	4081	830	0
1	4171	844	1
1	4171	844	0
1	4191	846	1
1	4191	846	0
1	4209	848	1
1	4209	848	0
1	4228	850	1
1	4228	850	0
1	4309	867	1
1	4309	867	0
1	4314	868	1
1	4317	868	0
1	4349	873	1
1	4349	873	0
1	4370	880	1
1	4370	880	0
1	4378	881	1
1	4380	881	0
1	4391	883	1
1	4391	883	0
1	4411	888	1
1	4411	888	0
1	4412	888	1
1	4417	889	2
1	4419	889	1
1	4425	890	0
1	4475	903	1
1	4475	903	0
1	4547	916	1
1	4547	916	0
1	4573	920	1
1	4582	921	0
1	4602	924	1
1	4602	924	0
1	4625	927	1
1	4625	927	0
1	4651	931	1
1	4651	931	0
1	4658	932	1
1	4661	932	0
1	4682	936	1
1	4682	936	0
1	4699	939	1
1	4699	939	0
1	4708	941	1
1	4708	941	0
1	4713	942	1
1	4717	942	0
1	4749	947	1
1	4749	947	0
1	4783	956	1
1	4783	956	0
1	4784	956	1
1	4789	957	2
1	4792	957	1
1	4802	958	0
1	4814	960	1
1	4814	960	0
1	4824	961	1
1	4826	961	0
1	4845	967	1
1	4845	967	0
1	4886	976	1
1	4886	976	0
1	4887	976	1
1	4898	977	0
1	4922	983	1
1	4922	983	0
1	4927	984	1
1	4930	984	0
1	4943	986	1
1	4943	986	0
1	4944	986	1
1	4953	987	0
1	5017	998	1
1	5017	998	0
1	5052	1004	1
1	5052	1004	0
1	5063	1006	1
1	5063	1006	0
1	5075	1008	1
1	5075	1008	0
1	5119	1014	1
1	5119	1014	0
1	5217	1033	1
1	5217	1033	0
1	5243	1036	1
1	5243	1036	0
1	5269	1039	1
1	5269	1039	0
1	5322	1046	1
1	5322	1046	0
1	5323	1046	1
1	5337	1047	0
1	5346	1048	1
1	5348	1048	0
1	5365	1050	1
1	5365	1050	0
1	5418	1064	1
1	5418	1064	0
1	5468	1073	1
1	5468	1073	0
1	5485	1075	1
1	5485	1075	0
1	5492	1076	1
1	5494	1076	0
1	5533	1083	1
1	5533	1083	0
1	5650	1109	1
1	5650	1109	0
1	5692	1116	1
1	5692	1116	0
1	5703	1118	1
1	5703	1118	0
1	5761	1128	1
1	5761	1128	0
1	5775	1130	1
1	5775	1130	0
1	5808	1134	1
1	5808	1134	0
1	5815	1135	1
1	5817	1135	0
1	5831	1138	1
1	5831	1138	0
1	5841	1139	1
1	5843	1139	0
1	5850	1140	1
1	5852	1140	0
1	5910	1150	1
1	5910	1150	0
1	5962	1160	1
1	5962	1160	0
1	6046	1177	1
1	6046	1177	0
1	6051	1178	1
1	6052	1178	2
1	6054	1178	1
1	6060	1179	0
1	6073	1181	1
1	6073	1181	0
1	6146	1203	1
1	6146	1203	0
1	6220	1220	1
1	6220	1220	0
1	6244	1223	1
1	6244	1223	0
1	6245	1223	1
1	6257	1224	0
1	6266	1225	1
1	6268	1225	0
1	6331	1244	1
1	6331	1244	0
1	6336	1245	1
1	6338	1245	0
1	6350	1247	1
1	6350	1247	0
1	6377	1252	1
1	6377	1252	0
1	6405	1261	1
1	6405	1261	0
1	6414	1263	1
1	6414	1263	0
1	6435	1267	1
1	6435	1267	0
1	6477	1277	1
1	6477	1277	0
1	6513	1282	1
1	6513	1282	0
1	6537	1285	1
1	6537	1285	0
1	6575	1291	1
1	6575	1291	0
1	6576	1291	1
1	6582	1292	0
1	6587	1293	1
1	6589	1293	0
1	6615	1301	1
1	6615	1301	0
1	6643	1306	1
1	6643	1306	0
1	6650	1307	1
1	6651	1307	2
1	6653	1307	1
1	6663	1308	0
1	6758	1325	1
1	6758	1325	0
1	6767	1327	1
1	6767	1327	0
1	6797	1332	1
1	6797	1332	0
1	6798	1332	1
1	6805	1333	0
1	6823	1336	1
1	6823	1336	0
1	6824	1336	1
1	6832	1337	0
1	6868	1345	1
1	6868	1345	0
1	6884	1349	1
1	6884	1349	0
1	6921	1359	1
1	6921	1359	0
1	6960	1366	1
1	6960	1366	0
1	6971	1369	1
1	6971	1369	0
1	6980	1370	1
1	6982	1370	0
1	7015	1377	1
1	7015	1377	0
1	7016	1377	1
1	7038	1382	0
1	7102	1399	1
1	7102	1399	0
1	7103	1399	1
1	7109	1400	0
1	7133	1407	1
1	7133	1407	0
1	7134	1407	1
1	7141	1408	0
1	7186	1416	1
1	7186	1416	0
1	7199	1418	1
1	7199	1418	0
1	7292	1439	1
1	7292	1439	0
1	7347	1447	1
1	7347	1447	0
1	7356	1448	1
1	7358	1448	0
1	7371	1451	1
1	7371	1451	0
1	7388	1453	1
1	7388	1453	0
1	7406	1456	1
1	7406	1456	0
1	7414	1457	1
1	7415	1457	2
1	7417	1457	1
1	7427	1458	0
1	7442	1460	1
1	7442	1460	0
1	7455	1463	1
1	7455	1463	0
1	7472	1465	1
1	7472	1465	0
1	7498	1472	1
1	7498	1472	0
1	7526	1481	1
1	7526	1481	0
1	7537	1484	1
1	7537	1484	0
1	7575	1494	1
1	7575	1494	0
1	7596	1497	1
1	7596	1497	0
1	7622	1500	1
1	7622	1500	0
1	7669	1511	1
1	7669	1511	0
1	7679	1512	1
1	7681	1512	0
1	7719	1520	1
1	7719	1520	0
1	7738	1523	1
1	7738	1523	0
1	7745	1524	1
1	7748	1524	0
1	7772	1529	1
1	7772	1529	0
1	7780	1531	1
1	7781	1531	2
1	7800	1534	1
1	7810	1535	0
1	7852	1541	1
1	7852	1541	0
1	7891	1548	1
1	7891	1548	0
1	7925	1553	1
1	7925	1553	0
1	7934	1554	1
1	7936	1554	0
1	7947	1556	1
1	7947	1556	0
1	7973	1559	1
1	7973	1559	0
1	7984	1560	1
1	7989	1560	0
1	8074	1575	1
1	8074	1575	0
1	8125	1590	1
1	8125	1590	0
1	8130	1591	1
1	8132	1591	0
1	8137	1592	1
1	8139	1592	0
1	8144	1593	1
1	8147	1593	0
1	8165	1596	1
1	8165	1596	0
1	8172	1597	1
1	8175	1597	0
1	8204	1602	1
1	8204	1602	0
1	8250	1611	1
1	8250	1611	0
1	8261	1613	1
1	8261	1613	0
1	8281	1619	1
1	8281	1619	0
1	8299	1622	1
1	8299	1622	0
1	8366	1631	1
1	8366	1631	0
1	8375	1632	1
1	8377	1632	0
1	8398	1635	1
1	8398	1635	0
1	8405	1636	1
1	8407	1636	0
1	8441	1643	1
1	8441	1643	0
1	8453	1645	1
1	8453	1645	0
1	8490	1650	1
1	8490	1650	0
1	8499	1652	1
1	8499	1652	0
1	8500	1652	1
1	8505	1653	2
1	8507	1653	1
1	8517	1656	2
1	8528	1658	1
1	8529	1658	2
1	8535	1659	1
1	8540	1660	2
1	8542	1660	1
1	8548	1661	0
1	8563	1664	1
1	8563	1664	0
1	8572	1665	1
1	8574	1665	0
1	8585	1667	1
1	8585	1667	0
1	8617	1673	1
1	8617	1673	0
1	8641	1676	1
1	8641	1676	0
1	8671	1685	1
1	8671	1685	0
1	8724	1695	1
1	8724	1695	0
1	8752	1703	1
1	8752	1703	0
1	8762	1704	1
1	8764	1704	0
1	8781	1706	1
1	8781	1706	0
1	8792	1708	1
1	8792	1708	0
1	8797	1709	1
1	8799	1709	0
1	8847	1723	1
1	8847	1723	0
1	8946	1744	1
1	8946	1744	0
1	9017	1758	1
1	9017	1758	0
1	9058	1766	1
1	9058	1766	0
1	9098	1771	1
1	9098	1771	0
1	9107	1772	1
1	9109	1772	0
1	9146	1780	1
1	9146	1780	0
1	9173	1786	1
1	9173	1786	0
1	9214	1792	1
1	9214	1792	0
1	9234	1795	1
1	9234	1795	0
1	9257	1798	1
1	9257	1798	0
1	9258	1798	1
1	9267	1799	0
1	9278	1801	1
1	9278	1801	0
1	9366	1820	1
1	9366	1820	0
1	9371	1821	1
1	9375	1822	2
1	9378	1823	3
1	9384	1825	2
1	9389	1826	3
1	9391	1826	2
1	9397	1827	1
1	9403	1828	0
1	9423	1834	1
1	9423	1834	0
1	9436	1837	1
1	9436	1837	0
1	9444	1838	1
1	9449	1838	0
1	9472	1841	1
1	9472	1841	0
1	9502	1850	1
1	9502	1850	0
1	9519	1856	1
1	9519	1856	0
1	9581	1868	1
1	9581	1868	0
1	9619	1874	1
1	9619	1874	0
1	9715	1889	1
1	9715	1889	0
1	9780	1905	1
1	9780	1905	0
1	9787	1906	1
1	9790	1906	0
1	9878	1924	1
1	9878	1924	0
1	9898	1926	1
1	9898	1926	0
1	9977	1940	1
1	9977	1940	0
1	9991	1942	1
1	9991	1942	0
1	10017	1948	1
1	10017	1948	0
1	10026	1949	1
1	10030	1949	0
1	10039	1950	1
1	10042	1950	0
1	10059	1952	1
1	10059	1952	0
1	10095	1964	1
1	10095	1964	0
1	10108	1968	1
1	10108	1968	0
1	10113	1969	1
1	10115	1969	0
1	10135	1974	1
1	10135	1974	0
1	10151	1977	1
1	10151	1977	0
1	10199	1986	1
1	10199	1986	0
1	10200	1986	1
1	10206	1987	0
1	10228	1991	1
1	10229	1991	2
1	10238	1992	1
1	10248	1993	0
1	10278	2001	1
1	10278	2001	0
1	10311	2007	1
1	10311	2007	0
1	10326	2009	1
1	10326	2009	0
1	10338	2011	1
1	10338	2011	0
1	10358	2015	1
1	10358	2015	0
1	10377	2018	1
1	10377	2018	0
1	10388	2020	1
1	10388	2020	0
1	10393	2021	1
1	10397	2021	0
1	10450	2031	1
1	10450	2031	0
1	10469	2034	1
1	10469	2034	0
1	10523	2046	1
1	10523	2046	0
1	10536	2049	1
1	10536	2049	0
1	10541	2050	1
1	10543	2050	0
1	10548	2051	1
1	10550	2051	0
1	10559	2053	1
1	10559	2053	0
1	10597	2062	1
1	10597	2062	0
1	10598	2062	1
1	10604	2063	0
1	10615	2066	1
1	10615	2066	0
1	10620	2067	1
1	10623	2067	0
1	10653	2075	1
1	10653	2075	0
1	10662	2077	1
1	10662	2077	0
1	10679	2079	1
1	10679	2079	0
1	10680	2079	1
1	10688	2080	0
1	10754	2098	1
1	10754	2098	0
1	10778	2105	1
1	10778	2105	0
1	10797	2108	1
1	10797	2108	0
1	10832	2117	1
1	10832	2117	0
1	10848	2120	1
1	10848	2120	0
1	10861	2122	1
1	10868	2123	2
1	10884	2125	1
1	10885	2125	2
1	10895	2126	1
1	10903	2127	0
1	10912	2129	1
1	10912	2129	0
1	10913	2129	1
1	10920	2130	0
1	10938	2133	1
1	10938	2133	0
1	10976	2138	1
1	10976	2138	0
1	10977	2138	1
1	10987	2139	0
1	11015	2142	1
1	11015	2142	0
1	11062	2150	1
1	11062	2150	0
1	11075	2153	1
1	11075	2153	0
1	11101	2161	1
1	11101	2161	0
1	11127	2165	1
1	11127	2165	0
1	11161	2171	1
1	11161	2171	0
1	11338	2217	1
1	11338	2217	0
1	11362	2224	1
1	11362	2224	0
1	11404	2230	1
1	11404	2230	0
1	11412	2231	1
1	11414	2231	0
1	11441	2237	1
1	11441	2237	0
1	11472	2244	1
1	11472	2244	0
1	11485	2248	1
1	11485	2248	0
1	11502	2254	1
1	11502	2254	0
1	11515	2258	1
1	11515	2258	0
1	11520	2259	1
1	11522	2259	0
1	11527	2260	1
1	11529	2260	0
1	11547	2264	1
1	11547	2264	0
1	11565	2266	1
1	11565	2266	0
1	11597	2274	1
1	11597	2274	0
1	11610	2276	1
1	11610	2276	0
1	11640	2283	1
1	11640	2283	0
1	11709	2297	1
1	11709	2297	0
1	11726	2299	1
1	11726	2299	0
1	11739	2302	1
1	11739	2302	0
1	11753	2305	1
1	11753	2305	0
1	11778	2310	1
1	11778	2310	0
1	11785	2311	1
1	11787	2311	0
1	11836	2323	1
1	11836	2323	0
1	11845	2325	1
1	11845	2325	0
1	11858	2329	1
1	11858	2329	0
1	11880	2336	1
1	11880	2336	0
1	11887	2337	1
1	11889	2337	0
1	11917	2342	1
1	11917	2342	0
1	11918	2342	1
1	11926	2343	0
1	11973	2354	1
1	11973	2354	0
1	11989	2357	1
1	11989	2357	0
1	12000	2360	1
1	12000	2360	0
1	12031	2364	1
1	12031	2364	0
1	12050	2366	1
1	12050	2366	0
1	12057	2367	1
1	12059	2367	0
1	12074	2372	1
1	12074	2372	0
1	12079	2373	1
1	12081	2373	0
1	12100	2376	1
1	12100	2376	0
1	12150	2385	1
1	12150	2385	0
1	12151	2385	1
1	12157	2386	0
1	12168	2389	1
1	12168	2389	0
1	12187	2391	1
1	12187	2391	0
1	12188	2391	1
1	12198	2392	0
1	12226	2398	1
1	12226	2398	0
1	12243	2404	1
1	12243	2404	0
1	12254	2407	1
1	12254	2407	0
1	12361	2430	1
1	12361	2430	0
1	12409	2439	1
1	12409	2439	0
1	12410	2439	1
1	12416	2440	0
1	12436	2445	1
1	12436	2445	0
1	12482	2456	1
1	12482	2456	0
1	12508	2459	1
1	12508	2459	0
1	12555	2465	1
1	12555	2465	0
1	12573	2467	1
1	12573	2467	0
1	12589	2469	1
1	12589	2469	0
1	12661	2485	1
1	12661	2485	0
1	12722	2498	1
1	12722	2498	0
1	12782	2511	1
1	12782	2511	0
1	12817	2515	1
1	12817	2515	0
1	12836	2517	1
1	12836	2517	0
1	12877	2524	1
1	12877	2524	0
1	12887	2525	1
1	12889	2525	0
1	12909	2529	1
1	12909	2529	0
1	12933	2532	1
1	12933	2532	0
1	12954	2537	1
1	12954	2537	0
1	13010	2547	1
1	13010	2547	0
1	13015	2548	1
1	13017	2548	0
1	13045	2557	1
1	13045	2557	0
1	13054	2559	1
1	13054	2559	0
1	13069	2564	1
1	13069	2564	0
1	13087	2568	1
1	13087	2568	0
1	13096	2570	1
1	13096	2570	0
1	13137	2578	1
1	13137	2578	0
1	13157	2584	1
1	13157	2584	0
1	13187	2589	1
1	13187	2589	0
1	13200	2592	1
1	13200	2592	0
1	13205	2593	1
1	13213	2594	2
1	13227	2597	1
1	13238	2598	0
1	13247	2599	1
1	13249	2599	0
1	13275	2604	1
1	13275	2604	0
1	13280	2605	1
1	13281	2605	2
1	13283	2605	1
1	13289	2606	0
1	13338	2614	1
1	13338	2614	0
1	13349	2616	1
1	13349	2616	0
1	13400	2629	1
1	13400	2629	0
1	13417	2635	1
1	13417	2635	0
1	13458	2644	1
1	13458	2644	0
1	13507	2655	1
1	13507	2655	0
1	13508	2655	1
1	13509	2655	2
1	13518	2656	1
1	13526	2657	0
1	13531	2658	1
1	13532	2658	2
1	13534	2658	1
1	13541	2659	0
1	13554	2661	1
1	13554	2661	0
1	13567	2665	1
1	13567	2665	0
1	13584	2667	1
1	13584	2667	0
1	13585	2667	1
1	13597	2668	0
1	13658	2679	1
1	13658	2679	0
1	13701	2690	1
1	13701	2690	0
1	13723	2694	1
1	13723	2694	0
1	13738	2698	1
1	13738	2698	0
1	13821	2717	1
1	13821	2717	0
1	13861	2723	1
1	13861	2723	0
1	13893	2728	1
1	13893	2728	0
1	13954	2741	1
1	13954	2741	0
1	14017	2756	1
1	14017	2756	0
1	14018	2756	1
1	14026	2757	0
1	14082	2765	1
1	14082	2765	0
1	14112	2772	1
1	14112	2772	0
1	14129	2778	1
1	14129	2778	0
1	14142	2782	1
1	14142	2782	0
1	14151	2784	1
1	14151	2784	0
1	14177	2792	1
1	14177	2792	0
1	14192	2797	1
1	14192	2797	0
1	14225	2806	1
1	14225	2806	0
1	14230	2807	1
1	14231	2807	2
1	14233	2807	1
1	14241	2808	0
1	14343	2836	1
1	14343	2836	0
1	14354	2838	1
1	14354	2838	0
1	14382	2847	1
1	14382	2847	0
1	14391	2849	1
1	14391	2849	0
1	14414	2853	1
1	14414	2853	0
1	14430	2856	1
1	14430	2856	0
1	14444	2858	1
1	14444	2858	0
1	14445	2858	1
1	14454	2859	0
1	14504	2873	1
1	14504	2873	0
1	14595	2894	1
1	14595	2894	0
1	14633	2905	1
1	14633	2905	0
1	14638	2906	1
1	14640	2906	0
1	14708	2920	1
1	14708	2920	0
1	14719	2921	1
1	14721	2921	0
1	14758	2926	1
1	14758	2926	0
1	14778	2928	1
1	14778	2928	0
1	14787	2929	1
1	14790	2929	0
1	14876	2944	1
1	14876	2944	0
1	14898	2950	1
1	14898	2950	0
1	14917	2952	1
1	14917	2952	0
1	14953	2957	1
1	14953	2957	0
1	14973	2960	1
1	14973	2960	0
1	14998	2967	1
1	14998	2967	0
1	15030	2973	1
1	15030	2973	0
1	15069	2981	1
1	15069	2981	0
1	15076	2982	1
1	15080	2982	0
1	15123	2988	1
1	15123	2988	0
1	15153	2992	1
1	15153	2992	0
1	15184	2996	1
1	15184	2996	0
1	15199	3000	1
1	15199	3000	0
1	15225	3004	1
1	15225	3004	0
1	15226	3004	1
1	15234	3005	0
1	15245	3008	1
1	15245	3008	0
1	15253	3009	1
1	15255	3009	0
1	15274	3013	1
1	15274	3013	0
1	15289	3015	1
1	15289	3015	0
1	15305	3018	1
1	15305	3018	0
1	15306	3018	1
1	15313	3019	0
1	15372	3029	1
1	15372	3029	0
1	15380	3030	1
1	15384	3030	0
1	15401	3032	1
1	15401	3032	0
1	15412	3034	1
1	15412	3034	0
1	15423	3037	1
1	15423	3037	0
1	15436	3041	1
1	15436	3041	0
1	15468	3047	1
1	15468	3047	0
1	15482	3049	1
1	15482	3049	0
1	15502	3054	1
1	15502	3054	0
1	15520	3058	1
1	15520	3058	0
1	15589	3071	1
1	15589	3071	0
1	15632	3079	1
1	15632	3079	0
1	15673	3089	1
1	15673	3089	0
1	15695	3095	1
1	15695	3095	0
1	15754	3107	1
1	15754	3107	0
1	15767	3111	1
1	15767	3111	0
1	15781	3113	1
1	15781	3113	0
1	15790	3115	1
1	15790	3115	0
1	15818	3124	1
1	15818	3124	0
1	15870	3133	1
1	15870	3133	0
1	15890	3136	1
1	15890	3136	0
1	15900	3137	1
1	15902	3137	0
1	15917	3141	1
1	15917	3141	0
1	15926	3142	1
1	15928	3142	0
1	15947	3144	1
1	15947	3144	0
1	15979	3152	1
1	15979	3152	0
1	15990	3155	1
1	15990	3155	0
1	15991	3155	1