version 3
run Experimentos-178-20260514-09:21:04-4314
attr configname Experimentos
attr datetime 20260514-09:21:04
attr datetimef 20260514-092104
attr experiment Experimentos
attr inifile TwoQueues.ini
attr iterationvars "$p=0.6, $q=0.2, $Y=30, $m=2"
attr iterationvarsd p=0.6/q=0.2/Y=30/m=2
attr iterationvarsf p=0.6,q=0.2,Y=30,m=2-
attr measurement "$p=0.6, $q=0.2, $Y=30, $m=2"
attr network TwoQueues
attr processid 4314
attr repetition 18
attr replication #18
attr resultdir results
attr runnumber 178
attr seedset 178
itervar Y 30
itervar m 2
itervar p 0.6
itervar q 0.2
config description "Barrido completo de parámetros Proyecto 12"
config **.source1.p 0.6
config **.source1.q 0.2
config **.source2.p 0.6
config **.source2.q 0.2
config **.serverWithMaintenance.Y 30
config **.serverWithMaintenance.m 2
config network TwoQueues
config cpu-time-limit 5000s
config sim-time-limit 5000s
config warmup-period 400s
config repeat 20
config output-scalar-file results/Experimentos-p=0.6,q=0.2,Y=30,m=2--#18.sca
config output-vector-file results/Experimentos-p=0.6,q=0.2,Y=30,m=2--#18.vec
config **.vector-recording true

vector 0 TwoQueues.serverWithMaintenance residenceTime2:vector ETV
attr recordingmode vector
attr source delay2
attr title "Residence Time Class 2"
vector 1 TwoQueues.queue2 queueLengthStats:vector ETV
attr recordingmode vector
attr source qlen
attr title "Average Queue Length"
vector 2 TwoQueues.queue1 queueLengthStats:vector ETV
attr recordingmode vector
attr source qlen
attr title "Average Queue Length"
vector 3 TwoQueues.server residenceTime1:vector ETV
attr recordingmode vector
attr source delay1
attr title "Residence Time Class 1"
vector 4 TwoQueues.server throughputStats1:vector ETV
attr recordingmode vector
attr source throughput1
attr title "Throughput Class 1"
0	2494	400	1
0	2534	405	1
0	2552	407	1
0	2580	410	1
0	2597	412	1
0	2627	416	1
0	2661	420	1
0	2674	421	2
0	2687	422	1
0	2698	423	2
0	2816	440	1
0	2839	445	1
0	2850	448	1
0	2888	457	1
0	2936	466	1
0	2968	475	1
0	2979	476	2
0	3008	479	3
0	3020	480	4
0	3031	481	1
0	3076	487	1
0	3088	489	1
0	3099	490	1
0	3117	492	1
0	3141	495	1
0	3150	496	2
0	3165	497	1
0	3177	498	1
0	3194	500	1
0	3212	502	1
0	3243	508	1
0	3298	515	1
0	3366	525	1
0	3452	539	1
0	3495	545	1
0	3542	555	1
0	3556	556	1
0	3637	571	1
0	3647	572	2
0	3730	585	1
0	3769	590	1
0	3854	607	1
0	3864	608	1
0	3876	609	1
0	3885	610	1
0	3901	613	1
0	3935	620	1
0	3956	625	1
0	4041	641	1
0	4074	645	1
0	4087	646	2
0	4105	648	1
0	4130	651	1
0	4163	657	1
0	4179	659	1
0	4205	663	1
0	4216	664	1
0	4235	666	1
0	4275	673	1
0	4334	684	1
0	4360	688	1
0	4381	690	1
0	4394	691	1
0	4414	693	1
0	4435	695	1
0	4454	697	1
0	4514	705	1
0	4540	708	1
0	4565	711	1
0	4612	717	1
0	4646	721	1
0	4663	723	1
0	4689	726	1
0	4699	727	2
0	4716	729	1
0	4729	730	1
0	4746	732	1
0	4764	735	4
0	4778	738	1
0	4803	744	1
0	4821	746	1
0	4842	749	1
0	4923	761	1
0	4954	765	1
0	4994	770	1
0	5027	776	1
0	5064	781	1
0	5142	792	1
0	5210	803	1
0	5313	817	1
0	5323	818	2
0	5340	820	1
0	5351	821	1
0	5363	822	1
0	5406	832	1
0	5443	838	1
0	5458	839	1
0	5508	846	1
0	5590	860	1
0	5601	861	1
0	5670	874	1
0	5725	882	1
0	5735	883	2
0	5754	887	1
0	5778	892	1
0	5796	895	1
0	5820	898	1
0	5858	905	1
0	5881	909	1
0	5897	912	1
0	5950	920	1
0	5978	924	1
0	6014	929	1
0	6025	930	1
0	6073	939	1
0	6100	942	1
0	6156	951	1
0	6166	952	2
0	6176	953	3
0	6195	956	1
0	6241	963	1
0	6256	965	1
0	6302	972	1
0	6318	974	1
0	6330	975	1
0	6352	978	1
0	6424	992	1
0	6447	997	1
0	6500	1006	1
0	6526	1011	1
0	6590	1019	1
0	6601	1020	1
0	6612	1021	1
0	6625	1022	1
0	6696	1032	1
0	6718	1035	1
0	6725	1036	1
0	6742	1039	3
0	6755	1042	1
0	6813	1049	1
0	6891	1062	1
0	6973	1073	1
0	6991	1075	1
0	7024	1080	1
0	7052	1084	1
0	7097	1090	1
0	7109	1091	1
0	7167	1098	1
0	7178	1099	1
0	7203	1102	1
0	7225	1104	1
0	7262	1109	1
0	7322	1117	1
0	7333	1118	1
0	7371	1123	1
0	7377	1124	2
0	7395	1128	1
0	7409	1131	1
0	7421	1132	2
0	7430	1133	2
0	7441	1134	1
0	7485	1140	1
0	7498	1141	2
0	7515	1143	1
0	7543	1146	1
0	7611	1155	1
0	7623	1156	2
0	7655	1160	1
0	7701	1166	1
0	7712	1167	1
0	7754	1175	1
0	7797	1181	1
0	7809	1182	1
0	7865	1192	1
0	7871	1193	2
0	7881	1194	1
0	7895	1195	1
0	7907	1196	2
0	7915	1197	3
0	7925	1198	3
0	7943	1200	1
0	7962	1202	1
0	8010	1211	1
0	8033	1214	1
0	8066	1219	1
0	8077	1220	1
0	8087	1221	1
0	8104	1227	1
0	8185	1239	1
0	8197	1240	1
0	8209	1241	1
0	8234	1248	1
0	8261	1251	1
0	8275	1252	1
0	8286	1253	1
0	8317	1257	1
0	8330	1258	2
0	8355	1261	4
0	8367	1263	1
0	8407	1273	1
0	8414	1274	1
0	8455	1282	1
0	8463	1283	1
0	8472	1284	2
0	8518	1296	1
0	8525	1297	1
0	8581	1307	1
0	8620	1312	1
0	8675	1319	1
0	8685	1320	2
0	8702	1322	1
0	8726	1325	1
0	8781	1332	1
0	8791	1333	2
0	8850	1347	1
0	8884	1353	1
0	8909	1357	1
0	8986	1369	1
0	9085	1383	1
0	9115	1386	1
0	9132	1388	1
0	9143	1389	1
0	9172	1393	1
0	9190	1397	1
0	9210	1402	1
0	9226	1404	1
0	9252	1408	1
0	9265	1411	3
0	9271	1412	3
0	9282	1414	1
0	9340	1424	1
0	9365	1427	1
0	9536	1458	1
0	9554	1460	1
0	9576	1464	1
0	9585	1465	2
0	9606	1467	1
0	9669	1476	1
0	9676	1477	1
0	9683	1478	1
0	9712	1485	1
0	9797	1505	1
0	9813	1508	1
0	9822	1510	1
0	9833	1511	1
0	9845	1512	1
0	9856	1513	1
0	9901	1521	1
0	9946	1527	1
0	10032	1539	1
0	10087	1546	1
0	10099	1547	1
0	10117	1549	1
0	10127	1550	1
0	10160	1559	1
0	10170	1560	1
0	10182	1561	1
0	10260	1571	1
0	10273	1572	1
0	10284	1573	1
0	10377	1585	1
0	10408	1589	1
0	10460	1596	1
0	10496	1604	1
0	10506	1605	1
0	10519	1608	1
0	10546	1612	1
0	10558	1613	1
0	10569	1614	1
0	10638	1630	1
0	10650	1631	2
0	10663	1632	2
0	10674	1633	2
0	10685	1634	2
0	10712	1637	1
0	10723	1638	2
0	10754	1643	1
0	10761	1644	1
0	10812	1652	1
0	10821	1654	1
0	10855	1660	1
0	10865	1661	1
0	10872	1662	1
0	10965	1682	1
0	11014	1693	1
0	11034	1698	1
0	11066	1706	1
0	11084	1709	4
0	11097	1711	1
0	11106	1712	2
0	11121	1716	1
0	11128	1717	1
0	11137	1719	1
0	11147	1720	1
0	11168	1727	1
0	11216	1737	1
0	11264	1744	1
0	11289	1747	1
0	11299	1748	2
0	11360	1756	1
0	11371	1757	1
0	11415	1763	1
0	11422	1764	1
0	11454	1769	1
0	11487	1774	1
0	11597	1794	1
0	11652	1805	1
0	11713	1813	1
0	11770	1822	1
0	11780	1823	1
0	11841	1835	1
0	11851	1836	2
0	11859	1837	3
0	11868	1838	3
0	11883	1839	1
0	11893	1840	2
0	11920	1844	1
0	11960	1849	1
0	11971	1850	1
0	11983	1851	2
0	12011	1855	1
0	12021	1856	2
0	12085	1867	1
0	12108	1870	1
0	12142	1874	1
0	12180	1881	1
0	12225	1890	1
0	12244	1892	1
0	12255	1893	1
0	12266	1894	1
0	12304	1901	1
0	12318	1904	1
0	12334	1907	1
0	12355	1910	1
0	12378	1914	1
0	12390	1915	1
0	12423	1921	1
0	12429	1922	2
0	12532	1941	1
0	12557	1946	1
0	12578	1950	1
0	12626	1956	1
0	12668	1964	1
0	12675	1965	1
0	12682	1966	1
0	12689	1967	1
0	12697	1968	1
0	12723	1971	4
0	12760	1977	1
0	12789	1982	1
0	12815	1985	1
0	12849	1989	1
0	12899	1998	1
0	12969	2007	1
0	13015	2013	1
0	13026	2014	1
0	13036	2015	1
0	13047	2017	1
0	13110	2025	1
0	13121	2026	2
0	13229	2048	1
0	13265	2052	1
0	13278	2053	1
0	13290	2054	1
0	13303	2055	2
0	13376	2065	1
0	13433	2073	1
0	13506	2083	1
0	13517	2084	1
0	13614	2098	1
0	13624	2099	1
0	13711	2111	1
0	13727	2112	2
0	13744	2114	1
0	13786	2120	1
0	13801	2123	1
0	13837	2128	1
0	13866	2137	1
0	13877	2138	1
0	13916	2146	1
0	14005	2160	1
0	14028	2163	1
0	14038	2164	1
0	14067	2170	1
0	14109	2176	1
0	14126	2178	1
0	14142	2180	1
0	14171	2186	1
0	14206	2193	1
0	14285	2205	1
0	14297	2206	2
0	14368	2217	1
0	14394	2220	1
0	14409	2221	2
0	14427	2223	1
0	14469	2228	1
0	14481	2229	1
0	14494	2230	2
0	14504	2231	2
0	14516	2232	3
0	14548	2236	1
0	14566	2238	1
0	14595	2241	1
0	14611	2242	1
0	14621	2243	2
0	14692	2253	1
0	14703	2254	1
0	14779	2263	1
0	14843	2272	1
0	14937	2286	1
0	14961	2289	1
0	14975	2291	1
0	14982	2292	1
0	15091	2314	1
0	15098	2315	1
0	15105	2316	1
0	15186	2329	1
0	15195	2331	1
0	15244	2338	1
0	15276	2343	1
0	15339	2356	1
0	15414	2366	1
0	15441	2369	1
0	15471	2373	1
0	15481	2374	1
0	15531	2383	1
0	15555	2386	1
0	15569	2388	1
0	15589	2390	1
0	15602	2391	2
0	15612	2392	2
0	15699	2403	1
0	15724	2406	1
0	15806	2418	1
0	15820	2420	1
0	15830	2421	1
0	15860	2427	1
0	15884	2430	2
0	15893	2432	1
0	15938	2441	1
0	15948	2442	1
0	15984	2448	1
0	15995	2449	2
0	16027	2454	1
0	16059	2459	1
0	16074	2461	1
0	16083	2462	2
0	16093	2463	1
0	16115	2468	1
0	16125	2469	1
0	16145	2473	1
0	16192	2484	1
0	16203	2486	1
0	16222	2488	1
0	16262	2496	1
0	16271	2497	2
0	16305	2503	1
0	16458	2532	1
0	16494	2540	1
0	16553	2548	1
0	16564	2549	1
0	16641	2567	1
0	16650	2568	2
0	16670	2572	1
0	16680	2573	1
0	16726	2586	1
0	16735	2588	1
0	16752	2591	1
0	16761	2593	1
0	16782	2597	1
0	16805	2600	1
0	16843	2605	1
0	16900	2613	1
0	16936	2618	1
0	16964	2622	1
0	17004	2631	1
0	17014	2632	1
0	17021	2633	1
0	17093	2643	1
0	17110	2645	1
0	17123	2649	1
0	17227	2671	1
0	17250	2675	1
0	17274	2681	1
0	17362	2694	1
0	17382	2696	1
0	17399	2698	1
0	17415	2700	1
0	17426	2703	1
0	17469	2709	1
0	17475	2710	2
0	17486	2711	1
0	17538	2719	1
0	17588	2728	1
0	17607	2730	1
0	17645	2738	1
0	17655	2739	2
0	17691	2745	1
0	17716	2749	1
0	17760	2757	1
0	17777	2759	1
0	17790	2760	1
0	17821	2764	1
0	17835	2767	1
0	17848	2771	1
0	17875	2775	1
0	17919	2780	1
0	17956	2784	1
0	17973	2786	1
0	17984	2787	1
0	17995	2788	1
0	18034	2793	1
0	18045	2794	1
0	18087	2803	1
0	18096	2805	1
0	18114	2809	1
0	18132	2814	1
0	18176	2820	1
0	18197	2823	1
0	18204	2824	1
0	18232	2828	1
0	18243	2829	1
0	18272	2833	1
0	18292	2836	1
0	18303	2837	1
0	18348	2846	1
0	18420	2857	1
0	18445	2860	3
0	18458	2861	2
0	18491	2866	1
0	18501	2867	1
0	18522	2870	1
0	18564	2881	1
0	18598	2886	1
0	18610	2887	1
0	18621	2888	2
0	18639	2891	1
0	18704	2906	1
0	18718	2908	1
0	18755	2914	1
0	18793	2919	1
0	18967	2951	1
0	19013	2958	1
0	19065	2966	1
0	19073	2967	2
0	19079	2968	2
0	19086	2969	3
0	19095	2970	2
0	19107	2971	1
0	19145	2979	1
0	19160	2983	1
0	19203	2988	1
0	19214	2989	1
0	19239	2992	1
0	19257	2994	1
0	19284	2999	1
0	19294	3000	2
0	19323	3005	1
0	19334	3006	1
0	19394	3016	1
0	19405	3017	2
0	19416	3018	2
0	19447	3022	1
0	19499	3030	1
0	19526	3033	1
0	19599	3045	1
0	19608	3046	2
0	19621	3047	1
0	19660	3056	1
0	19671	3059	1
0	19678	3060	1
0	19737	3071	1
0	19790	3080	1
0	19807	3082	1
0	19883	3095	1
0	19974	3114	1
0	20004	3118	1
0	20011	3119	1
0	20065	3131	1
0	20184	3154	1
0	20215	3160	1
0	20238	3165	1
0	20249	3168	1
0	20273	3171	1
0	20377	3187	1
0	20388	3189	1
0	20406	3193	1
0	20421	3196	3
0	20454	3201	1
0	20466	3202	1
0	20475	3203	2
0	20488	3207	1
0	20505	3209	1
0	20514	3210	2
0	20547	3215	1
0	20565	3218	1
0	20575	3219	1
0	20588	3221	1
0	20600	3222	1
0	20610	3223	1
0	20625	3227	1
0	20639	3229	1
0	20727	3244	1
0	20737	3245	1
0	20878	3272	1
0	20909	3276	1
0	20986	3290	1
0	21026	3295	1
0	21044	3297	1
0	21064	3299	1
0	21091	3302	1
0	21139	3309	1
0	21173	3316	1
0	21185	3317	1
0	21252	3330	1
0	21337	3344	1
0	21383	3352	1
0	21398	3355	2
0	21411	3356	1
0	21423	3357	1
0	21435	3358	2
0	21448	3359	2
0	21466	3361	1
0	21502	3365	1
0	21522	3367	1
0	21587	3376	1
0	21605	3378	1
0	21615	3379	2
0	21659	3388	1
0	21714	3397	1
0	21780	3415	1
0	21814	3421	1
0	22002	3454	1
0	22033	3459	1
0	22049	3462	1
0	22149	3476	1
0	22178	3479	1
0	22192	3480	2
0	22258	3489	1
0	22269	3490	2
0	22279	3491	2
0	22297	3493	1
0	22320	3496	1
0	22347	3500	1
0	22368	3504	1
0	22381	3508	1
0	22448	3519	1
0	22470	3523	1
0	22495	3527	1
0	22504	3529	1
0	22538	3535	1
0	22589	3543	1
0	22625	3548	1
0	22664	3554	1
0	22671	3555	1
0	22680	3557	1
0	22687	3558	1
0	22712	3562	1
0	22729	3565	1
0	22824	3581	1
0	22831	3582	2
0	22837	3583	2
0	22844	3584	1
0	22851	3585	1
0	22861	3586	1
0	22898	3591	1
0	22911	3595	1
0	22940	3600	1
0	22952	3601	1
0	22995	3607	1
0	23056	3616	1
0	23066	3617	2
0	23091	3620	1
0	23125	3624	1
0	23136	3625	2
0	23223	3640	1
0	23254	3644	1
0	23306	3651	1
0	23328	3653	1
0	23394	3663	1
0	23406	3664	1
0	23507	3678	1
0	23533	3683	1
0	23540	3684	1
0	23568	3689	1
0	23637	3701	1
0	23647	3702	2
0	23653	3703	2
0	23660	3704	1
0	23671	3707	1
0	23681	3708	1
0	23716	3713	1
0	23732	3715	1
0	23762	3720	1
0	23799	3726	1
0	23842	3735	1
0	23853	3737	1
0	23883	3743	1
0	23905	3749	1
0	23984	3760	1
0	24047	3768	1
0	24078	3772	1
0	24104	3778	1
0	24110	3779	2
0	24197	3795	1
0	24218	3802	1
0	24252	3806	1
0	24278	3809	3
0	24318	3815	1
0	24337	3822	1
0	24362	3826	1
0	24455	3838	1
0	24493	3843	1
0	24520	3846	1
0	24531	3847	1
0	24573	3852	1
0	24627	3859	1
0	24638	3860	1
0	24683	3866	1
0	24696	3867	2
0	24718	3870	1
0	24725	3871	1
0	24739	3873	1
0	24747	3874	1
0	24753	3875	2
0	24808	3885	1
0	24832	3892	1
0	24895	3911	1
0	24906	3912	1
0	24942	3918	1
0	24954	3919	1
0	24993	3929	1
0	25021	3933	1
0	25035	3936	1
0	25046	3939	1
0	25074	3943	1
0	25128	3951	1
0	25175	3958	1
0	25262	3978	1
0	25294	3984	1
0	25348	3993	1
0	25373	3996	1
0	25383	3997	1
0	25390	3998	1
0	25421	4005	1
0	25451	4011	1
0	25472	4014	1
0	25518	4020	1
0	25529	4021	2
0	25541	4022	3
0	25561	4024	1
0	25583	4027	1
0	25594	4029	1
0	25671	4046	1
0	25681	4047	1
0	25694	4050	1
0	25708	4052	1
0	25790	4063	1
0	25814	4066	1
0	25836	4068	1
0	25877	4074	1
0	25886	4076	1
0	25917	4082	1
0	25955	4088	1
0	26006	4096	1
0	26017	4097	1
0	26056	4102	1
0	26075	4105	3
0	26082	4106	1
0	26092	4107	1
0	26113	4110	1
0	26124	4111	1
0	26143	4113	1
0	26153	4114	1
0	26184	4121	1
0	26210	4125	1
0	26250	4131	1
0	26270	4133	1
0	26280	4134	2
0	26345	4146	1
0	26364	4148	1
0	26375	4149	2
0	26398	4154	1
0	26419	4157	1
0	26457	4163	1
0	26482	4166	1
0	26512	4169	1
0	26523	4170	1
0	26534	4171	1
0	26610	4183	1
0	26622	4184	1
0	26651	4188	1
0	26677	4191	1
0	26717	4196	1
0	26728	4197	1
0	26775	4205	1
0	26801	4212	1
0	26827	4218	1
0	26848	4221	1
0	26862	4223	1
0	26952	4237	1
0	27014	4249	1
0	27032	4251	1
0	27068	4256	1
0	27116	4265	1
0	27163	4271	1
0	27201	4277	1
0	27208	4278	2
0	27214	4279	2
0	27260	4286	1
0	27337	4296	1
0	27382	4303	1
0	27441	4315	1
0	27533	4335	1
0	27547	4336	1
0	27561	4337	1
0	27592	4341	1
0	27659	4354	1
0	27773	4376	1
0	27803	4382	1
0	27814	4383	2
0	27826	4385	1
0	27858	4391	1
0	27889	4396	1
0	27898	4397	2
0	27927	4402	1
0	27993	4412	1
0	28017	4415	1
0	28029	4416	1
0	28081	4426	1
0	28110	4430	1
0	28119	4431	2
0	28161	4437	1
0	28226	4448	1
0	28237	4449	1
0	28276	4454	1
0	28313	4459	1
0	28331	4461	1
0	28346	4463	1
0	28355	4464	2
0	28381	4467	1
0	28454	4477	1
0	28490	4483	1
0	28549	4492	1
0	28560	4493	1
0	28572	4495	1
0	28602	4500	1
0	28622	4505	1
0	28686	4517	1
0	28697	4518	2
0	28756	4526	1
0	28766	4527	1
0	28773	4528	1
0	28797	4532	1
0	28869	4542	1
0	28885	4544	1
0	28903	4548	1
0	28918	4551	3
0	28943	4554	1
0	28957	4556	1
0	29030	4572	1
0	29050	4574	1
0	29061	4575	1
0	29106	4583	1
0	29129	4588	1
0	29160	4598	1
0	29166	4599	2
0	29200	4610	1
0	29210	4611	1
0	29237	4615	1
0	29294	4624	1
0	29303	4625	2
0	29340	4633	1
0	29350	4634	2
0	29361	4635	3
0	29413	4641	1
0	29456	4646	1
0	29560	4661	1
0	29580	4663	1
0	29595	4664	2
0	29646	4671	1
0	29673	4674	1
0	29713	4680	1
0	29773	4688	1
0	29815	4696	1
0	29979	4728	1
0	30024	4734	1
0	30063	4738	1
0	30086	4741	1
0	30132	4749	1
0	30146	4751	1
0	30225	4763	1
0	30236	4765	1
0	30253	4767	1
0	30289	4772	1
0	30307	4774	1
0	30320	4775	1
0	30359	4780	1
0	30513	4802	1
0	30520	4803	1
0	30559	4809	1
0	30688	4828	1
0	30746	4836	1
0	30848	4854	1
0	30910	4863	1
0	30922	4864	1
0	30946	4867	1
0	30990	4874	1
0	30999	4875	2
0	31013	4877	1
0	31028	4881	1
0	31038	4882	1
0	31052	4885	1
0	31071	4887	1
0	31119	4895	1
0	31126	4896	1
0	31143	4899	1
0	31171	4902	4
0	31232	4910	1
0	31242	4911	2
0	31295	4917	1
0	31308	4918	2
0	31342	4922	1
0	31352	4923	2
0	31383	4927	1
0	31401	4929	1
0	31412	4930	1
0	31443	4934	1
0	31453	4935	2
0	31472	4937	1
0	31532	4946	1
0	31555	4951	1
0	31643	4964	1
0	31668	4967	1
0	31679	4968	1
0	31699	4970	1
0	31720	4972	1
0	31782	4981	1
0	31796	4983	1
0	31818	4989	1
0	31828	4990	1
0	31846	4992	1
0	31858	4994	1
1	2526	404	1
1	2526	404	0
1	2544	406	1
1	2544	406	0
1	2571	409	1
1	2571	409	0
1	2590	411	1
1	2590	411	0
1	2620	415	1
1	2620	415	0
1	2650	419	1
1	2650	419	0
1	2651	419	1
1	2667	420	0
1	2676	421	1
1	2677	421	2
1	2680	421	1
1	2691	422	0
1	2809	439	1
1	2809	439	0
1	2835	444	1
1	2835	444	0
1	2846	447	1
1	2846	447	0
1	2884	456	1
1	2884	456	0
1	2930	465	1
1	2930	465	0
1	2958	474	1
1	2958	474	0
1	2959	474	1
1	2972	475	0
1	2981	476	1
1	2982	476	2
1	2999	478	1
1	3013	479	0
1	3022	480	1
1	3024	480	0
1	3069	486	1
1	3069	486	0
1	3084	488	1
1	3084	488	0
1	3089	489	1
1	3093	489	0
1	3109	491	1
1	3109	491	0
1	3134	494	1
1	3134	494	0
1	3135	494	1
1	3144	495	0
1	3151	496	1
1	3159	496	0
1	3166	497	1
1	3171	497	0
1	3187	499	1
1	3187	499	0
1	3204	501	1
1	3204	501	0
1	3237	507	1
1	3237	507	0
1	3291	514	1
1	3291	514	0
1	3359	524	1
1	3359	524	0
1	3444	538	1
1	3444	538	0
1	3489	544	1
1	3489	544	0
1	3535	554	1
1	3535	554	0
1	3544	555	1
1	3549	555	0
1	3629	570	1
1	3629	570	0
1	3630	570	1
1	3640	571	0
1	3721	584	1
1	3721	584	0
1	3762	589	1
1	3762	589	0
1	3850	606	1
1	3850	606	0
1	3855	607	1
1	3858	607	0
1	3865	608	1
1	3870	608	0
1	3877	609	1
1	3881	609	0
1	3895	612	1
1	3895	612	0
1	3929	619	1
1	3929	619	0
1	3952	624	1
1	3952	624	0
1	4034	640	1
1	4034	640	0
1	4066	644	1
1	4066	644	0
1	4067	644	1
1	4080	645	0
1	4097	647	1
1	4097	647	0
1	4123	650	1
1	4123	650	0
1	4155	656	1
1	4155	656	0
1	4173	658	1
1	4173	658	0
1	4198	662	1
1	4198	662	0
1	4207	663	1
1	4209	663	0
1	4228	665	1
1	4228	665	0
1	4266	672	1
1	4266	672	0
1	4330	683	1
1	4330	683	0
1	4353	687	1
1	4353	687	0
1	4371	689	1
1	4371	689	0
1	4383	690	1
1	4387	690	0
1	4404	692	1
1	4404	692	0
1	4424	694	1
1	4424	694	0
1	4447	696	1
1	4447	696	0
1	4505	704	1
1	4505	704	0
1	4532	707	1
1	4532	707	0
1	4558	710	1
1	4558	710	0
1	4605	716	1
1	4605	716	0
1	4639	720	1
1	4639	720	0
1	4656	722	1
1	4656	722	0
1	4679	725	1
1	4679	725	0
1	4680	725	1
1	4692	726	0
1	4709	728	1
1	4709	728	0
1	4718	729	1
1	4722	729	0
1	4739	731	1
1	4739	731	0
1	4740	731	1
1	4758	734	0
1	4774	737	1
1	4774	737	0
1	4794	743	1
1	4794	743	0
1	4814	745	1
1	4814	745	0
1	4835	748	1
1	4835	748	0
1	4914	760	1
1	4914	760	0
1	4947	764	1
1	4947	764	0
1	4987	769	1
1	4987	769	0
1	5020	775	1
1	5020	775	0
1	5058	780	1
1	5058	780	0
1	5135	791	1
1	5135	791	0
1	5204	802	1
1	5204	802	0
1	5304	816	1
1	5304	816	0
1	5305	816	1
1	5316	817	0
1	5333	819	1
1	5333	819	0
1	5342	820	1
1	5344	820	0
1	5353	821	1
1	5356	821	0
1	5402	831	1
1	5402	831	0
1	5439	837	1
1	5439	837	0
1	5444	838	1
1	5452	838	0
1	5501	845	1
1	5501	845	0
1	5583	859	1
1	5583	859	0
1	5592	860	1
1	5594	860	0
1	5664	873	1
1	5664	873	0
1	5717	881	1
1	5717	881	0
1	5718	881	1
1	5728	882	0
1	5747	886	1
1	5747	886	0
1	5772	891	1
1	5772	891	0
1	5788	894	1
1	5788	894	0
1	5813	897	1
1	5813	897	0
1	5852	904	1
1	5852	904	0
1	5875	908	1
1	5875	908	0
1	5888	911	1
1	5888	911	0
1	5944	919	1
1	5944	919	0
1	5971	923	1
1	5971	923	0
1	6006	928	1
1	6006	928	0
1	6016	929	1
1	6018	929	0
1	6065	938	1
1	6065	938	0
1	6093	941	1
1	6093	941	0
1	6146	950	1
1	6146	950	0
1	6147	950	1
1	6148	950	2
1	6159	951	1
1	6169	952	0
1	6189	955	1
1	6189	955	0
1	6234	962	1
1	6234	962	0
1	6249	964	1
1	6249	964	0
1	6298	971	1
1	6298	971	0
1	6310	973	1
1	6310	973	0
1	6320	974	1
1	6323	974	0
1	6345	977	1
1	6345	977	0
1	6416	991	1
1	6416	991	0
1	6441	996	1
1	6441	996	0
1	6496	1005	1
1	6496	1005	0
1	6514	1010	1
1	6514	1010	0
1	6583	1018	1
1	6583	1018	0
1	6592	1019	1
1	6594	1019	0
1	6603	1020	1
1	6605	1020	0
1	6614	1021	1
1	6618	1021	0
1	6689	1031	1
1	6689	1031	0
1	6712	1034	1
1	6712	1034	0
1	6719	1035	1
1	6721	1035	0
1	6726	1036	1
1	6738	1038	0
1	6749	1041	1
1	6749	1041	0
1	6806	1048	1
1	6806	1048	0
1	6884	1061	1
1	6884	1061	0
1	6965	1072	1
1	6965	1072	0
1	6983	1074	1
1	6983	1074	0
1	7018	1079	1
1	7018	1079	0
1	7046	1083	1
1	7046	1083	0
1	7089	1089	1
1	7089	1089	0
1	7099	1090	1
1	7102	1090	0
1	7160	1097	1
1	7160	1097	0
1	7169	1098	1
1	7171	1098	0
1	7196	1101	1
1	7196	1101	0
1	7213	1103	1
1	7213	1103	0
1	7254	1108	1
1	7254	1108	0
1	7314	1116	1
1	7314	1116	0
1	7324	1117	1
1	7326	1117	0
1	7364	1122	1
1	7364	1122	0
1	7365	1122	1
1	7373	1123	0
1	7389	1127	1
1	7389	1127	0
1	7402	1130	1
1	7402	1130	0
1	7403	1130	1
1	7411	1131	2
1	7414	1131	1
1	7424	1132	0
1	7431	1133	1
1	7435	1133	0
1	7476	1139	1
1	7476	1139	0
1	7477	1139	1
1	7491	1140	0
1	7508	1142	1
1	7508	1142	0
1	7531	1145	1
1	7531	1145	0
1	7603	1154	1
1	7603	1154	0
1	7604	1154	1
1	7616	1155	0
1	7648	1159	1
1	7648	1159	0
1	7694	1165	1
1	7694	1165	0
1	7703	1166	1
1	7705	1166	0
1	7745	1174	1
1	7745	1174	0
1	7791	1180	1
1	7791	1180	0
1	7798	1181	1
1	7803	1181	0
1	7860	1191	1
1	7860	1191	0
1	7861	1191	1
1	7867	1192	0
1	7872	1193	1
1	7875	1193	0
1	7882	1194	1
1	7883	1194	2
1	7884	1194	3
1	7889	1194	2
1	7896	1195	3
1	7901	1195	2
1	7911	1196	1
1	7919	1197	0
1	7934	1199	1
1	7934	1199	0
1	7955	1201	1
1	7955	1201	0
1	8001	1210	1
1	8001	1210	0
1	8027	1213	1
1	8027	1213	0
1	8058	1218	1
1	8058	1218	0
1	8068	1219	1
1	8070	1219	0
1	8079	1220	1
1	8081	1220	0
1	8100	1226	1
1	8100	1226	0
1	8178	1238	1
1	8178	1238	0
1	8187	1239	1
1	8190	1239	0
1	8199	1240	1
1	8202	1240	0
1	8227	1247	1
1	8227	1247	0
1	8251	1250	1
1	8251	1250	0
1	8263	1251	1
1	8268	1251	0
1	8277	1252	1
1	8279	1252	0
1	8309	1256	1
1	8309	1256	0
1	8310	1256	1
1	8319	1257	2
1	8323	1257	1
1	8348	1260	0
1	8363	1262	1
1	8363	1262	0
1	8401	1272	1
1	8401	1272	0
1	8408	1273	1
1	8410	1273	0
1	8451	1281	1
1	8451	1281	0
1	8456	1282	1
1	8457	1282	2
1	8459	1282	1
1	8466	1283	0
1	8512	1295	1
1	8512	1295	0
1	8519	1296	1
1	8521	1296	0
1	8570	1306	1
1	8570	1306	0
1	8612	1311	1
1	8612	1311	0
1	8667	1318	1
1	8667	1318	0
1	8668	1318	1
1	8678	1319	0
1	8695	1321	1
1	8695	1321	0
1	8719	1324	1
1	8719	1324	0
1	8772	1331	1
1	8772	1331	0
1	8773	1331	1
1	8784	1332	0
1	8846	1346	1
1	8846	1346	0
1	8877	1352	1
1	8877	1352	0
1	8902	1356	1
1	8902	1356	0
1	8978	1368	1
1	8978	1368	0
1	9076	1382	1
1	9076	1382	0
1	9107	1385	1
1	9107	1385	0
1	9125	1387	1
1	9125	1387	0
1	9134	1388	1
1	9136	1388	0
1	9166	1392	1
1	9166	1392	0
1	9186	1396	1
1	9186	1396	0
1	9206	1401	1
1	9206	1401	0
1	9219	1403	1
1	9219	1403	0
1	9246	1407	1
1	9246	1407	0
1	9253	1408	1
1	9257	1409	2
1	9261	1410	1
1	9267	1411	0
1	9276	1413	1
1	9276	1413	0
1	9333	1423	1
1	9333	1423	0
1	9358	1426	1
1	9358	1426	0
1	9527	1457	1
1	9527	1457	0
1	9547	1459	1
1	9547	1459	0
1	9571	1463	1
1	9571	1463	0
1	9572	1463	1
1	9579	1464	0
1	9598	1466	1
1	9598	1466	0
1	9663	1475	1
1	9663	1475	0
1	9670	1476	1
1	9672	1476	0
1	9677	1477	1
1	9679	1477	0
1	9708	1484	1
1	9708	1484	0
1	9793	1504	1
1	9793	1504	0
1	9809	1507	1
1	9809	1507	0
1	9818	1509	1
1	9818	1509	0
1	9823	1510	1
1	9827	1510	0
1	9834	1511	1
1	9839	1511	0
1	9846	1512	1
1	9850	1512	0
1	9892	1520	1
1	9892	1520	0
1	9937	1526	1
1	9937	1526	0
1	10024	1538	1
1	10024	1538	0
1	10080	1545	1
1	10080	1545	0
1	10089	1546	1
1	10092	1546	0
1	10109	1548	1
1	10109	1548	0
1	10119	1549	1
1	10121	1549	0
1	10156	1558	1
1	10156	1558	0
1	10161	1559	1
1	10164	1559	0
1	10171	1560	1
1	10176	1560	0
1	10250	1570	1
1	10250	1570	0
1	10262	1571	1
1	10266	1571	0
1	10275	1572	1
1	10277	1572	0
1	10368	1584	1
1	10368	1584	0
1	10401	1588	1
1	10401	1588	0
1	10451	1595	1
1	10451	1595	0
1	10492	1603	1
1	10492	1603	0
1	10497	1604	1
1	10500	1604	0
1	10515	1607	1
1	10515	1607	0
1	10538	1611	1
1	10538	1611	0
1	10548	1612	1
1	10551	1612	0
1	10560	1613	1
1	10562	1613	0
1	10627	1629	1
1	10627	1629	0
1	10628	1629	1
1	10640	1630	2
1	10643	1630	1
1	10652	1631	2
1	10656	1631	1
1	10665	1632	2
1	10667	1632	1
1	10678	1633	0
1	10704	1636	1
1	10704	1636	0
1	10705	1636	1
1	10716	1637	0
1	10750	1642	1
1	10750	1642	0
1	10755	1643	1
1	10757	1643	0
1	10806	1651	1
1	10806	1651	0
1	10817	1653	1
1	10817	1653	0
1	10848	1659	1
1	10848	1659	0
1	10857	1660	1
1	10859	1660	0
1	10866	1661	1
1	10868	1661	0
1	10957	1681	1
1	10957	1681	0
1	11010	1692	1
1	11010	1692	0
1	11028	1697	1
1	11028	1697	0
1	11061	1705	1
1	11061	1705	0
1	11062	1705	1
1	11076	1708	0
1	11092	1710	1
1	11092	1710	0
1	11093	1710	1
1	11100	1711	0
1	11117	1715	1
1	11117	1715	0
1	11122	1716	1
1	11124	1716	0
1	11133	1718	1
1	11133	1718	0
1	11138	1719	1
1	11141	1719	0
1	11164	1726	1
1	11164	1726	0
1	11209	1736	1
1	11209	1736	0
1	11257	1743	1
1	11257	1743	0
1	11280	1746	1
1	11280	1746	0
1	11281	1746	1
1	11292	1747	0
1	11352	1755	1
1	11352	1755	0
1	11362	1756	1
1	11364	1756	0
1	11409	1762	1
1	11409	1762	0
1	11416	1763	1
1	11418	1763	0
1	11448	1768	1
1	11448	1768	0
1	11481	1773	1
1	11481	1773	0
1	11591	1793	1
1	11591	1793	0
1	11645	1804	1
1	11645	1804	0
1	11704	1812	1
1	11704	1812	0
1	11762	1821	1
1	11762	1821	0
1	11772	1822	1
1	11774	1822	0
1	11833	1834	1
1	11833	1834	0
1	11834	1834	1
1	11835	1834	2
1	11842	1835	3
1	11845	1835	2
1	11855	1836	1
1	11862	1837	0
1	11869	1838	1
1	11870	1838	2
1	11877	1838	1
1	11887	1839	0
1	11911	1843	1
1	11911	1843	0
1	11953	1848	1
1	11953	1848	0
1	11962	1849	1
1	11963	1849	2
1	11965	1849	1
1	11977	1850	0
1	12004	1854	1
1	12004	1854	0
1	12005	1854	1
1	12015	1855	0
1	12077	1866	1
1	12077	1866	0
1	12101	1869	1
1	12101	1869	0
1	12134	1873	1
1	12134	1873	0
1	12173	1880	1
1	12173	1880	0
1	12221	1889	1
1	12221	1889	0
1	12235	1891	1
1	12235	1891	0
1	12246	1892	1
1	12248	1892	0
1	12257	1893	1
1	12259	1893	0
1	12296	1900	1
1	12296	1900	0
1	12314	1903	1
1	12314	1903	0
1	12328	1906	1
1	12328	1906	0
1	12349	1909	1
1	12349	1909	0
1	12369	1913	1
1	12369	1913	0
1	12380	1914	1
1	12383	1914	0
1	12418	1920	1
1	12418	1920	0
1	12419	1920	1
1	12425	1921	0
1	12526	1940	1
1	12526	1940	0
1	12553	1945	1
1	12553	1945	0
1	12570	1949	1
1	12570	1949	0
1	12617	1955	1
1	12617	1955	0
1	12664	1963	1
1	12664	1963	0
1	12669	1964	1
1	12671	1964	0
1	12676	1965	1
1	12678	1965	0
1	12683	1966	1
1	12685	1966	0
1	12690	1967	1
1	12691	1967	2
1	12693	1967	1
1	12712	1970	0
1	12754	1976	1
1	12754	1976	0
1	12779	1981	1
1	12779	1981	0
1	12806	1984	1
1	12806	1984	0
1	12840	1988	1
1	12840	1988	0
1	12893	1997	1
1	12893	1997	0
1	12961	2006	1
1	12961	2006	0
1	13006	2012	1
1	13006	2012	0
1	13017	2013	1
1	13019	2013	0
1	13028	2014	1
1	13030	2014	0
1	13041	2016	1
1	13041	2016	0
1	13100	2024	1
1	13100	2024	0
1	13101	2024	1
1	13114	2025	0
1	13222	2047	1
1	13222	2047	0
1	13254	2051	1
1	13254	2051	0
1	13267	2052	1
1	13271	2052	0
1	13280	2053	1
1	13281	2053	2
1	13283	2053	1
1	13296	2054	0
1	13368	2064	1
1	13368	2064	0
1	13424	2072	1
1	13424	2072	0
1	13498	2082	1
1	13498	2082	0
1	13508	2083	1
1	13510	2083	0
1	13607	2097	1
1	13607	2097	0
1	13616	2098	1
1	13618	2098	0
1	13703	2110	1
1	13703	2110	0
1	13704	2110	1
1	13720	2111	0
1	13737	2113	1
1	13737	2113	0
1	13780	2119	1
1	13780	2119	0
1	13793	2122	1
1	13793	2122	0
1	13831	2127	1
1	13831	2127	0
1	13862	2136	1
1	13862	2136	0
1	13867	2137	1
1	13871	2137	0
1	13909	2145	1
1	13909	2145	0
1	13998	2159	1
1	13998	2159	0
1	14022	2162	1
1	14022	2162	0
1	14029	2163	1
1	14032	2163	0
1	14063	2169	1
1	14063	2169	0
1	14100	2175	1
1	14100	2175	0
1	14119	2177	1
1	14119	2177	0
1	14136	2179	1
1	14136	2179	0
1	14165	2185	1
1	14165	2185	0
1	14199	2192	1
1	14199	2192	0
1	14278	2204	1
1	14278	2204	0
1	14279	2204	1
1	14290	2205	0
1	14357	2216	1
1	14357	2216	0
1	14386	2219	1
1	14386	2219	0
1	14387	2219	1
1	14402	2220	0
1	14420	2222	1
1	14420	2222	0
1	14460	2227	1
1	14460	2227	0
1	14471	2228	1
1	14472	2228	2
1	14474	2228	1
1	14483	2229	2
1	14484	2229	3
1	14487	2229	2
1	14497	2230	1
1	14509	2231	0
1	14540	2235	1
1	14540	2235	0
1	14558	2237	1
1	14558	2237	0
1	14586	2240	1
1	14586	2240	0
1	14597	2241	1
1	14598	2241	2
1	14604	2241	1
1	14614	2242	0
1	14684	2252	1
1	14684	2252	0
1	14694	2253	1
1	14696	2253	0
1	14772	2262	1
1	14772	2262	0
1	14836	2271	1
1	14836	2271	0
1	14929	2285	1
1	14929	2285	0
1	14955	2288	1
1	14955	2288	0
1	14969	2290	1
1	14969	2290	0
1	14976	2291	1
1	14978	2291	0
1	15085	2313	1
1	15085	2313	0
1	15092	2314	1
1	15094	2314	0
1	15099	2315	1
1	15101	2315	0
1	15182	2328	1
1	15182	2328	0
1	15191	2330	1
1	15191	2330	0
1	15237	2337	1
1	15237	2337	0
1	15270	2342	1
1	15270	2342	0
1	15331	2355	1
1	15331	2355	0
1	15404	2365	1
1	15404	2365	0
1	15434	2368	1
1	15434	2368	0
1	15464	2372	1
1	15464	2372	0
1	15473	2373	1
1	15475	2373	0
1	15524	2382	1
1	15524	2382	0
1	15549	2385	1
1	15549	2385	0
1	15563	2387	1
1	15563	2387	0
1	15579	2389	1
1	15579	2389	0
1	15580	2389	1
1	15591	2390	2
1	15595	2390	1
1	15605	2391	0
1	15692	2402	1
1	15692	2402	0
1	15716	2405	1
1	15716	2405	0
1	15799	2417	1
1	15799	2417	0
1	15814	2419	1
1	15814	2419	0
1	15822	2420	1
1	15824	2420	0
1	15853	2426	1
1	15853	2426	0
1	15870	2428	1
1	15878	2429	0
1	15889	2431	1
1	15889	2431	0
1	15932	2440	1
1	15932	2440	0
1	15940	2441	1
1	15942	2441	0
1	15976	2447	1
1	15976	2447	0
1	15977	2447	1
1	15988	2448	0
1	16021	2453	1
1	16021	2453	0
1	16052	2458	1
1	16052	2458	0
1	16067	2460	1
1	16067	2460	0
1	16068	2460	1
1	16077	2461	0
1	16084	2462	1
1	16087	2462	0
1	16111	2467	1
1	16111	2467	0
1	16116	2468	1
1	16119	2468	0
1	16141	2472	1
1	16141	2472	0
1	16188	2483	1
1	16188	2483	0
1	16197	2485	1
1	16197	2485	0
1	16215	2487	1
1	16215	2487	0
1	16257	2495	1
1	16257	2495	0
1	16258	2495	1
1	16265	2496	0
1	16301	2502	1
1	16301	2502	0
1	16454	2531	1
1	16454	2531	0
1	16485	2539	1
1	16485	2539	0
1	16546	2547	1
1	16546	2547	0
1	16555	2548	1
1	16557	2548	0
1	16633	2566	1
1	16633	2566	0
1	16634	2566	1
1	16644	2567	0
1	16664	2571	1
1	16664	2571	0
1	16672	2572	1
1	16674	2572	0
1	16722	2585	1
1	16722	2585	0
1	16731	2587	1
1	16731	2587	0
1	16746	2590	1
1	16746	2590	0
1	16757	2592	1
1	16757	2592	0
1	16774	2596	1
1	16774	2596	0
1	16799	2599	1
1	16799	2599	0
1	16834	2604	1
1	16834	2604	0
1	16892	2612	1
1	16892	2612	0
1	16927	2617	1
1	16927	2617	0
1	16958	2621	1
1	16958	2621	0
1	16997	2630	1
1	16997	2630	0
1	17006	2631	1
1	17008	2631	0
1	17015	2632	1
1	17017	2632	0
1	17086	2642	1
1	17086	2642	0
1	17104	2644	1
1	17104	2644	0
1	17119	2648	1
1	17119	2648	0
1	17223	2670	1
1	17223	2670	0
1	17246	2674	1
1	17246	2674	0
1	17268	2680	1
1	17268	2680	0
1	17355	2693	1
1	17355	2693	0
1	17375	2695	1
1	17375	2695	0
1	17392	2697	1
1	17392	2697	0
1	17409	2699	1
1	17409	2699	0
1	17422	2702	1
1	17422	2702	0
1	17462	2708	1
1	17462	2708	0
1	17463	2708	1
1	17471	2709	0
1	17476	2710	1
1	17480	2710	0
1	17532	2718	1
1	17532	2718	0
1	17581	2727	1
1	17581	2727	0
1	17599	2729	1
1	17599	2729	0
1	17636	2737	1
1	17636	2737	0
1	17637	2737	1
1	17648	2738	0
1	17685	2744	1
1	17685	2744	0
1	17708	2748	1
1	17708	2748	0
1	17754	2756	1
1	17754	2756	0
1	17769	2758	1
1	17769	2758	0
1	17779	2759	1
1	17783	2759	0
1	17814	2763	1
1	17814	2763	0
1	17831	2766	1
1	17831	2766	0
1	17844	2770	1
1	17844	2770	0
1	17867	2774	1
1	17867	2774	0
1	17912	2779	1
1	17912	2779	0