version 3
run Experimentos-842-20260508-20:06:19-32048
attr configname Experimentos
attr datetime 20260508-20:06:19
attr datetimef 20260508-200619
attr experiment Experimentos
attr inifile TwoQueues.ini
attr iterationvars "$p=0.7, $q=0.3, $Y=20, $m=4"
attr iterationvarsd p=0.7/q=0.3/Y=20/m=4
attr iterationvarsf p=0.7,q=0.3,Y=20,m=4-
attr measurement "$p=0.7, $q=0.3, $Y=20, $m=4"
attr network TwoQueues
attr processid 32048
attr repetition 2
attr replication #2
attr resultdir results
attr runnumber 842
attr seedset 842
itervar Y 20
itervar m 4
itervar p 0.7
itervar q 0.3
config description "Barrido completo de parámetros Proyecto 12"
config **.source1.p 0.7
config **.source1.q 0.2
config **.source2.p 0.6
config **.source2.q 0.3
config **.serverWithMaintenance.Y 20
config **.serverWithMaintenance.m 4
config network TwoQueues
config cpu-time-limit 5000s
config sim-time-limit 5000s
config warmup-period 400s
config repeat 20
config output-scalar-file results/Experimentos-p=0.7,q=0.3,Y=20,m=4--#2.sca
config output-vector-file results/Experimentos-p=0.7,q=0.3,Y=20,m=4--#2.vec
config **.vector-recording true

vector 0 TwoQueues.serverWithMaintenance residenceTime2:vector ETV
attr recordingmode vector
attr source delay2
attr title "Residence Time Class 2"
vector 1 TwoQueues.queue2 queueLengthStats:vector ETV
attr recordingmode vector
attr source qlen
attr title "Average Queue Length"
vector 2 TwoQueues.queue1 queueLengthStats:vector ETV
attr recordingmode vector
attr source qlen
attr title "Average Queue Length"
vector 3 TwoQueues.server residenceTime1:vector ETV
attr recordingmode vector
attr source delay1
attr title "Residence Time Class 1"
vector 4 TwoQueues.server throughputStats1:vector ETV
attr recordingmode vector
attr source throughput1
attr title "Throughput Class 1"
0	2396	403	1
0	2460	415	1
0	2487	418	1
0	2511	424	1
0	2525	426	1
0	2532	427	1
0	2553	432	1
0	2562	433	2
0	2585	438	5
0	2613	443	1
0	2624	444	1
0	2657	448	1
0	2675	450	1
0	2682	451	2
0	2689	452	2
0	2695	453	2
0	2702	454	1
0	2709	455	1
0	2725	457	1
0	2741	461	1
0	2752	464	1
0	2765	467	1
0	2778	468	1
0	2790	469	2
0	2810	473	1
0	2832	478	1
0	2846	480	1
0	2860	482	1
0	2889	487	2
0	2913	494	1
0	2920	495	1
0	2927	496	1
0	2960	504	1
0	2983	508	1
0	2995	510	1
0	3002	511	1
0	3060	525	1
0	3076	528	1
0	3084	529	1
0	3090	530	2
0	3108	535	1
0	3119	536	2
0	3138	540	1
0	3155	542	1
0	3161	543	2
0	3170	545	1
0	3201	553	1
0	3231	559	1
0	3262	564	5
0	3269	565	5
0	3278	566	3
0	3284	567	4
0	3290	568	4
0	3299	569	4
0	3307	570	5
0	3313	571	6
0	3331	574	1
0	3348	576	1
0	3356	577	1
0	3362	578	2
0	3369	579	1
0	3392	587	1
0	3416	589	1
0	3441	592	1
0	3454	593	2
0	3478	596	1
0	3502	599	1
0	3513	600	1
0	3532	605	5
0	3541	607	1
0	3559	611	1
0	3568	613	1
0	3579	615	1
0	3602	617	1
0	3616	618	1
0	3642	621	1
0	3653	622	1
0	3672	624	1
0	3690	626	1
0	3727	631	1
0	3739	632	1
0	3771	637	1
0	3780	639	1
0	3809	646	1
0	3832	650	1
0	3850	654	1
0	3857	655	1
0	3876	662	1
0	3892	667	4
0	3902	668	1
0	3938	674	1
0	3952	676	1
0	3963	677	1
0	3970	678	2
0	3976	679	2
0	3983	680	1
0	4012	687	1
0	4022	688	1
0	4033	690	1
0	4102	702	1
0	4142	707	1
0	4154	708	1
0	4209	715	1
0	4220	716	2
0	4257	721	1
0	4283	724	1
0	4300	727	1
0	4331	735	1
0	4353	740	6
0	4362	741	4
0	4368	742	3
0	4380	744	1
0	4390	745	2
0	4399	746	2
0	4411	747	1
0	4426	750	1
0	4436	751	1
0	4447	754	1
0	4465	758	1
0	4481	761	1
0	4488	762	1
0	4495	763	1
0	4511	766	1
0	4523	768	1
0	4542	771	1
0	4551	772	2
0	4583	782	1
0	4591	783	1
0	4612	788	6
0	4618	789	4
0	4640	795	1
0	4702	811	1
0	4722	815	1
0	4788	828	1
0	4801	830	1
0	4807	831	2
0	4831	838	1
0	4845	840	1
0	4859	843	1
0	4868	844	2
0	4878	846	1
0	4891	847	2
0	4901	848	2
0	4917	850	1
0	4927	851	1
0	4947	856	1
0	4957	857	1
0	4996	865	1
0	5018	870	6
0	5025	871	6
0	5032	872	6
0	5038	873	3
0	5044	874	3
0	5060	877	1
0	5076	880	1
0	5088	883	1
0	5097	884	2
0	5117	887	1
0	5143	890	1
0	5155	892	1
0	5162	893	1
0	5189	899	1
0	5199	900	1
0	5208	901	1
0	5229	904	1
0	5236	905	1
0	5256	910	1
0	5263	911	1
0	5287	916	3
0	5293	917	3
0	5300	918	4
0	5310	919	5
0	5322	920	3
0	5332	921	2
0	5342	922	1
0	5348	923	2
0	5357	925	1
0	5377	929	1
0	5421	936	1
0	5470	949	1
0	5484	951	1
0	5495	953	1
0	5512	956	1
0	5521	957	2
0	5591	971	1
0	5608	973	1
0	5622	975	1
0	5645	979	1
0	5681	984	3
0	5749	994	1
0	5779	998	1
0	5818	1005	1
0	5842	1008	1
0	5863	1010	1
0	5888	1013	1
0	5898	1014	2
0	5912	1017	1
0	5936	1024	1
0	5946	1025	1
0	5955	1026	1
0	5966	1029	1
0	6002	1036	1
0	6060	1045	1
0	6079	1049	1
0	6088	1050	2
0	6097	1052	1
0	6104	1053	1
0	6124	1058	1
0	6142	1063	4
0	6148	1064	5
0	6154	1065	4
0	6191	1071	1
0	6198	1072	1
0	6207	1074	1
0	6217	1075	1
0	6231	1077	1
0	6240	1078	2
0	6263	1082	1
0	6282	1086	1
0	6288	1087	2
0	6295	1088	1
0	6308	1090	1
0	6339	1094	1
0	6353	1096	1
0	6378	1101	1
0	6411	1106	1
0	6421	1107	1
0	6453	1111	1
0	6484	1116	4
0	6494	1117	1
0	6517	1121	1
0	6525	1122	1
0	6531	1123	2
0	6538	1124	1
0	6545	1125	1
0	6568	1130	1
0	6579	1131	1
0	6606	1135	1
0	6612	1136	2
0	6623	1138	1
0	6655	1145	1
0	6669	1147	1
0	6683	1149	1
0	6712	1156	1
0	6721	1158	1
0	6730	1160	1
0	6778	1169	1
0	6785	1170	1
0	6801	1175	4
0	6808	1176	1
0	6841	1185	1
0	6852	1188	1
0	6870	1191	1
0	6883	1192	1
0	6912	1195	1
0	6938	1198	1
0	6995	1206	1
0	7053	1215	1
0	7081	1220	1
0	7091	1221	1
0	7113	1226	1
0	7147	1233	1
0	7172	1237	1
0	7186	1240	1
0	7194	1241	1
0	7204	1242	2
0	7228	1245	1
0	7259	1249	1
0	7280	1254	1
0	7305	1258	1
0	7325	1260	1
0	7347	1264	1
0	7357	1265	1
0	7373	1267	1
0	7407	1274	1
0	7435	1281	1
0	7444	1282	2
0	7453	1283	1
0	7471	1287	1
0	7530	1298	1
0	7546	1302	1
0	7553	1303	1
0	7564	1305	1
0	7585	1309	1
0	7594	1311	1
0	7621	1317	1
0	7632	1318	1
0	7656	1321	1
0	7714	1333	1
0	7732	1337	1
0	7766	1345	1
0	7775	1346	2
0	7792	1351	1
0	7810	1353	1
0	7816	1354	2
0	7823	1355	1
0	7834	1358	1
0	7856	1364	1
0	7882	1370	1
0	7915	1375	1
0	7936	1379	1
0	7958	1384	1
0	7968	1385	1
0	7975	1386	1
0	7993	1388	1
0	8004	1389	2
0	8013	1390	3
0	8023	1392	1
0	8041	1397	6
0	8047	1398	3
0	8053	1399	4
0	8059	1400	4
0	8135	1413	1
0	8167	1418	1
0	8179	1420	1
0	8218	1427	1
0	8229	1430	1
0	8247	1432	1
0	8257	1433	2
0	8269	1435	1
0	8280	1437	1
0	8306	1441	1
0	8342	1448	1
0	8352	1449	1
0	8375	1452	1
0	8385	1453	1
0	8411	1456	1
0	8424	1457	1
0	8471	1464	1
0	8491	1468	1
0	8502	1470	1
0	8517	1473	1
0	8527	1474	2
0	8539	1475	1
0	8551	1476	2
0	8563	1477	1
0	8587	1483	1
0	8593	1484	2
0	8625	1488	1
0	8665	1494	1
0	8675	1495	1
0	8689	1497	1
0	8703	1500	1
0	8724	1503	1
0	8735	1504	2
0	8758	1509	1
0	8774	1511	1
0	8793	1513	1
0	8832	1518	2
0	8843	1519	2
0	8854	1520	2
0	8870	1522	1
0	8887	1528	1
0	8894	1529	1
0	8905	1532	1
0	8918	1536	1
0	8930	1537	1
0	8953	1541	1
0	8983	1547	1
0	8993	1548	2
0	9002	1549	2
0	9011	1550	1
0	9043	1555	1
0	9053	1556	1
0	9097	1563	1
0	9106	1565	1
0	9153	1576	1
0	9164	1579	1
0	9193	1584	4
0	9202	1585	3
0	9226	1588	1
0	9244	1591	1
0	9251	1592	1
0	9262	1594	1
0	9300	1604	1
0	9317	1606	1
0	9347	1610	1
0	9400	1619	1
0	9421	1623	1
0	9437	1625	1
0	9447	1626	1
0	9472	1630	1
0	9493	1634	1
0	9502	1635	2
0	9516	1637	1
0	9586	1652	1
0	9627	1660	1
0	9639	1661	1
0	9670	1666	3
0	9680	1667	1
0	9705	1671	1
0	9730	1681	1
0	9741	1682	1
0	9760	1685	1
0	9774	1687	1
0	9788	1690	1
0	9801	1693	1
0	9817	1697	1
0	9839	1701	1
0	9849	1702	2
0	9871	1705	1
0	9894	1708	1
0	9927	1713	1
0	9947	1715	1
0	9958	1716	1
0	10004	1724	1
0	10013	1725	2
0	10026	1728	1
0	10059	1735	1
0	10122	1744	1
0	10135	1748	1
0	10157	1754	1
0	10188	1762	1
0	10197	1764	1
0	10206	1766	1
0	10213	1767	1
0	10226	1769	1
0	10235	1770	2
0	10241	1771	3
0	10254	1772	1
0	10290	1777	1
0	10300	1778	1
0	10307	1779	1
0	10333	1787	1
0	10340	1788	1
0	10359	1794	1
0	10369	1795	1
0	10399	1800	1
0	10431	1805	4
0	10437	1806	2
0	10459	1812	1
0	10495	1820	1
0	10505	1821	2
0	10547	1827	1
0	10582	1832	1
0	10623	1839	1
0	10633	1840	1
0	10653	1844	1
0	10681	1850	1
0	10687	1851	2
0	10705	1854	1
0	10721	1858	1
0	10730	1860	1
0	10753	1864	1
0	10771	1868	1
0	10785	1870	1
0	10792	1871	1
0	10799	1872	1
0	10848	1882	1
0	10894	1888	1
0	10904	1889	1
0	10911	1890	1
0	10969	1902	1
0	10980	1903	1
0	10998	1905	1
0	11015	1907	1
0	11040	1910	1
0	11073	1914	1
0	11082	1915	2
0	11088	1916	3
0	11096	1917	1
0	11103	1918	2
0	11112	1919	2
0	11143	1926	1
0	11167	1931	1
0	11178	1932	1
0	11230	1942	1
0	11267	1952	1
0	11298	1957	2
0	11304	1958	2
0	11310	1959	3
0	11327	1964	1
0	11358	1969	1
0	11370	1970	1
0	11382	1971	2
0	11393	1972	2
0	11423	1978	1
0	11430	1979	1
0	11441	1982	1
0	11451	1984	1
0	11457	1985	2
0	11477	1988	1
0	11489	1989	1
0	11499	1990	2
0	11511	1992	1
0	11524	1996	1
0	11548	2003	1
0	11566	2006	1
0	11595	2011	2
0	11650	2023	1
0	11656	2024	2
0	11663	2025	1
0	11713	2036	1
0	11747	2043	1
0	11758	2044	1
0	11773	2046	1
0	11823	2055	1
0	11851	2059	1
0	11872	2067	1
0	11880	2068	1
0	11886	2069	2
0	11955	2078	1
0	11966	2079	1
0	11983	2081	1
0	12006	2084	1
0	12020	2086	1
0	12040	2090	1
0	12052	2092	1
0	12068	2097	3
0	12080	2099	1
0	12092	2100	1
0	12115	2103	1
0	12131	2107	1
0	12140	2108	2
0	12155	2112	1
0	12171	2116	1
0	12182	2119	1
0	12213	2127	1
0	12222	2129	1
0	12229	2130	1
0	12244	2134	1
0	12255	2135	1
0	12261	2136	2
0	12275	2138	1
0	12286	2140	1
0	12296	2141	1
0	12308	2143	1
0	12333	2147	1
0	12369	2153	1
0	12381	2154	1
0	12392	2155	1
0	12411	2157	1
0	12421	2158	1
0	12454	2166	1
0	12487	2171	1
0	12497	2172	1
0	12508	2174	1
0	12517	2176	1
0	12530	2180	1
0	12546	2183	1
0	12607	2201	1
0	12617	2203	1
0	12623	2204	2
0	12639	2207	1
0	12668	2215	1
0	12700	2220	1
0	12707	2221	1
0	12725	2224	1
0	12755	2229	6
0	12765	2230	7
0	12774	2231	6
0	12780	2232	6
0	12812	2239	1
0	12827	2240	2
0	12837	2241	2
0	12847	2242	3
0	12857	2243	1
0	12877	2248	1
0	12893	2252	1
0	12904	2253	2
0	12914	2254	1
0	12922	2255	1
0	12932	2256	2
0	13006	2275	1
0	13029	2279	1
0	13038	2281	1
0	13049	2282	1
0	13066	2284	1
0	13103	2289	4
0	13110	2290	4
0	13116	2291	5
0	13122	2292	5
0	13131	2293	4
0	13154	2296	1
0	13184	2300	1
0	13225	2306	1
0	13231	2307	2
0	13245	2309	1
0	13253	2310	1
0	13259	2311	2
0	13267	2312	1
0	13273	2313	2
0	13292	2319	1
0	13302	2320	1
0	13309	2321	1
0	13323	2323	1
0	13334	2326	1
0	13341	2327	1
0	13357	2332	2
0	13399	2341	1
0	13409	2342	2
0	13422	2343	1
0	13431	2344	2
0	13458	2355	1
0	13475	2360	1
0	13516	2369	1
0	13523	2370	1
0	13554	2377	1
0	13566	2378	1
0	13582	2382	1
0	13626	2393	1
0	13636	2394	1
0	13643	2395	1
0	13672	2407	1
0	13683	2408	1
0	13691	2409	2
0	13710	2416	1
0	13765	2430	1
0	13819	2442	1
0	13829	2443	2
0	13840	2444	2
0	13875	2451	1
0	13908	2456	1
0	13968	2466	1
0	13980	2468	1
0	13989	2470	1
0	14057	2484	1
0	14075	2488	1
0	14085	2489	1
0	14106	2493	1
0	14112	2494	2
0	14134	2499	1
0	14144	2500	1
0	14155	2502	1
0	14176	2506	1
0	14232	2514	1
0	14248	2517	1
0	14255	2518	1
0	14279	2523	5
0	14299	2527	1
0	14306	2528	1
0	14326	2533	1
0	14336	2534	1
0	14345	2535	1
0	14366	2541	1
0	14378	2542	2
0	14411	2547	1
0	14429	2552	1
0	14479	2562	1
0	14501	2565	1
0	14510	2566	2
0	14523	2569	1
0	14534	2572	1
0	14549	2577	1
0	14557	2578	1
0	14567	2579	2
0	14603	2585	1
0	14631	2588	1
0	14669	2593	1
0	14724	2604	1
0	14745	2607	1
0	14768	2610	1
0	14787	2612	1
0	14799	2614	1
0	14809	2615	1
0	14827	2619	1
0	14852	2622	1
0	14893	2631	1
0	14903	2632	1
0	14921	2635	1
0	14948	2641	1
0	14973	2646	1
0	14986	2650	1
0	15002	2654	1
0	15008	2655	2
0	15014	2656	3
0	15023	2657	4
0	15043	2661	1
0	15063	2668	1
0	15070	2669	1
0	15079	2671	1
0	15095	2675	1
0	15104	2676	2
0	15114	2677	1
0	15126	2678	1
0	15145	2683	1
0	15157	2685	1
0	15173	2688	1
0	15215	2699	1
0	15225	2700	1
0	15265	2709	1
0	15301	2722	1
0	15308	2723	1
0	15315	2724	1
0	15357	2735	1
0	15368	2737	1
0	15396	2741	1
0	15408	2743	1
0	15429	2748	3
0	15451	2754	1
0	15499	2761	1
0	15512	2762	1
0	15577	2772	1
0	15598	2775	1
0	15622	2781	1
0	15641	2784	1
0	15651	2785	1
0	15685	2790	1
0	15697	2792	1
0	15714	2797	1
0	15795	2818	1
0	15802	2819	2
0	15808	2820	2
0	15815	2821	1
0	15861	2830	1
0	15873	2831	1
0	15896	2834	1
0	15916	2839	1
0	15937	2844	4
0	15952	2849	1
0	15973	2852	1
0	15980	2853	1
0	16010	2863	1
0	16027	2869	1
0	16077	2884	1
0	16084	2885	1
0	16108	2894	1
0	16117	2895	2
0	16136	2897	1
0	16175	2907	1
0	16191	2911	1
0	16213	2915	1
0	16239	2918	1
0	16281	2926	1
0	16288	2927	1
0	16298	2928	1
0	16350	2938	1
0	16374	2945	1
0	16401	2950	3
0	16408	2951	2
0	16414	2952	2
0	16441	2955	1
0	16452	2956	2
0	16477	2959	1
0	16497	2961	1
0	16509	2962	1
0	16526	2964	1
0	16544	2967	1
0	16551	2968	1
0	16561	2969	1
0	16570	2970	1
0	16577	2971	1
0	16594	2976	1
0	16627	2986	1
0	16634	2987	1
0	16644	2988	1
0	16657	2989	1
0	16681	2992	1
0	16706	2997	4
0	16713	2998	3
0	16719	2999	2
0	16744	3003	1
0	16764	3008	1
0	16783	3011	1
0	16806	3014	1
0	16841	3020	1
0	16856	3025	1
0	16867	3026	1
0	16876	3027	2
0	16882	3028	2
0	16891	3030	1
0	16898	3031	1
0	16931	3040	1
0	16941	3042	1
0	16950	3043	2
0	16973	3048	1
0	16980	3049	2
0	16989	3050	2
0	17007	3055	1
0	17016	3057	1
0	17037	3060	1
0	17065	3066	1
0	17076	3067	2
0	17113	3072	1
0	17130	3076	1
0	17136	3077	2
0	17146	3078	1
0	17179	3086	1
0	17190	3087	1
0	17205	3089	1
0	17212	3090	1
0	17235	3094	1
0	17259	3097	1
0	17271	3098	1
0	17280	3099	2
0	17289	3101	1
0	17299	3102	1
0	17314	3103	1
0	17344	3108	2
0	17360	3111	1
0	17386	3118	1
0	17398	3119	1
0	17409	3120	2
0	17420	3121	3
0	17432	3122	2
0	17456	3125	1
0	17476	3129	1
0	17493	3133	1
0	17503	3134	2
0	17519	3138	1
0	17559	3145	1
0	17566	3146	2
0	17573	3147	2
0	17579	3148	2
0	17600	3151	1
0	17615	3155	1
0	17627	3157	1
0	17657	3162	1
0	17696	3168	1
0	17702	3169	2
0	17709	3170	1
0	17734	3173	1
0	17745	3174	1
0	17763	3177	1
0	17788	3182	1
0	17826	3188	1
0	17843	3190	1
0	17862	3192	1
0	17902	3197	1
0	17915	3198	2
0	17941	3201	1
0	17952	3202	1
0	17964	3203	1
0	17988	3206	1
0	17998	3207	1
0	18034	3214	1
0	18046	3216	1
0	18065	3223	1
0	18081	3228	3
0	18090	3230	1
0	18103	3233	1
0	18147	3245	1
0	18176	3253	1
0	18190	3255	1
0	18213	3259	1
0	18222	3261	1
0	18260	3266	1
0	18269	3267	2
0	18316	3278	1
0	18343	3283	1
0	18354	3284	1
0	18363	3285	2
0	18372	3286	1
0	18412	3291	1
0	18423	3292	2
0	18433	3293	2
0	18445	3295	1
0	18479	3299	1
0	18516	3304	5
0	18528	3305	1
0	18544	3308	1
0	18571	3314	1
0	18597	3318	1
0	18609	3319	1
0	18625	3321	1
0	18674	3329	1
0	18685	3331	1
0	18718	3337	1
0	18741	3340	1
0	18775	3352	1
0	18782	3353	1
0	18793	3356	1
0	18863	3376	1
0	18897	3382	1
0	18928	3391	1
0	18942	3393	1
0	18971	3400	1
0	18991	3404	1
0	19039	3411	1
0	19046	3412	1
0	19065	3415	1
0	19094	3421	1
0	19105	3422	1
0	19116	3423	1
0	19145	3426	1
0	19165	3428	1
0	19176	3429	1
0	19188	3430	1
0	19199	3431	2
0	19217	3433	1
0	19241	3436	1
0	19256	3439	1
0	19262	3440	2
0	19273	3441	1
0	19296	3444	1
0	19303	3445	2
0	19309	3446	2
0	19318	3448	1
0	19360	3453	3
0	19370	3454	3
0	19394	3457	1
0	19413	3459	1
0	19425	3461	1
0	19444	3464	1
0	19481	3470	1
0	19517	3477	1
0	19535	3481	1
0	19597	3492	1
0	19614	3494	1
0	19626	3495	1
0	19656	3499	1
0	19671	3503	1
0	19683	3504	1
0	19695	3506	1
0	19704	3508	1
0	19713	3510	1
0	19722	3512	1
0	19738	3517	1
0	19766	3522	6
0	19778	3523	1
0	19789	3524	1
0	19810	3527	1
0	19854	3535	1
0	19861	3536	1
0	19879	3540	1
0	19888	3541	1
0	19895	3542	2
0	19906	3543	3
0	19917	3544	3
0	19932	3545	3
0	19943	3546	3
0	19954	3547	2
0	19964	3548	2
0	19985	3553	1
0	20003	3557	1
0	20013	3558	1
0	20025	3559	1
0	20039	3560	1
0	20069	3565	3
0	20079	3566	2
0	20091	3568	1
0	20118	3574	1
0	20130	3577	1
0	20136	3578	2
0	20149	3582	1
0	20189	3587	1
0	20199	3588	2
0	20215	3590	1
0	20230	3594	1
0	20236	3595	2
0	20242	3596	3
0	20249	3597	1
0	20262	3600	1
0	20279	3602	1
0	20296	3608	1
0	20357	3617	1
0	20366	3618	2
0	20380	3620	1
0	20408	3625	6
0	20415	3626	3
0	20427	3627	4
0	20439	3628	3
0	20450	3629	2
0	20467	3631	1
0	20478	3632	1
0	20510	3636	1
0	20529	3639	1
0	20556	3645	1
0	20563	3646	1
0	20573	3647	1
0	20591	3649	1
0	20611	3655	1
0	20622	3656	1
0	20640	3659	1
0	20646	3660	2
0	20654	3661	1
0	20661	3662	2
0	20667	3663	2
0	20697	3669	1
0	20721	3673	1
0	20732	3674	1
0	20750	3679	1
0	20810	3696	1
0	20816	3697	2
0	20832	3701	1
0	20852	3705	1
0	20859	3706	1
0	20898	3712	1
0	20917	3714	1
0	20926	3715	2
0	20934	3716	3
0	20943	3718	1
0	20973	3724	1
0	20986	3725	1
0	20996	3726	2
0	21010	3728	1
0	21042	3734	1
0	21048	3735	2
0	21068	3740	7
0	21075	3741	1
0	21089	3743	1
0	21100	3744	1
0	21119	3746	1
0	21152	3751	1
0	21162	3752	1
0	21169	3753	1
0	21194	3758	1
0	21219	3761	1
0	21244	3765	1
0	21254	3766	2
0	21280	3771	1
0	21340	3781	1
0	21356	3784	1
0	21370	3786	1
0	21409	3793	1
0	21420	3795	1
0	21434	3798	1
0	21441	3799	1
0	21469	3804	5
0	21484	3807	1
0	21490	3808	2
0	21500	3809	1
0	21511	3811	1
0	21531	3815	1
0	21545	3818	1
0	21552	3819	1
0	21561	3821	1
0	21568	3822	1
0	21575	3823	1
0	21598	3827	1
0	21611	3831	1
0	21626	3833	1
0	21635	3834	2
0	21648	3837	1
0	21655	3838	1
0	21671	3840	1
0	21685	3843	1
0	21719	3848	1
0	21781	3863	1
0	21788	3864	1
0	21803	3867	1
0	21812	3868	2
0	21818	3869	3
0	21829	3871	1
0	21858	3878	1
0	21903	3889	1
0	21912	3891	1
0	21919	3892	1
0	21940	3895	1
0	21951	3897	1
0	21963	3898	1
0	21977	3901	1
0	21988	3904	1
0	21995	3905	1
0	22008	3908	1
0	22020	3910	1
0	22038	3914	1
0	22052	3916	1
0	22069	3921	5
0	22076	3922	5
0	22089	3923	2
0	22100	3924	1
0	22118	3926	1
0	22148	3930	1
0	22186	3935	1
0	22205	3937	1
0	22250	3943	1
0	22287	3952	1
0	22308	3954	1
0	22326	3956	1
0	22361	3960	1
0	22372	3961	2
0	22383	3962	2
0	22392	3963	2
0	22401	3965	1
0	22412	3968	1
0	22453	3976	1
0	22466	3979	1
0	22495	3984	1
0	22514	3991	1
0	22536	3996	1
0	22560	3999	1
0	22593	4007	1
0	22603	4008	1
0	22633	4014	1
0	22644	4015	1
0	22667	4020	1
0	22685	4022	1
0	22697	4023	1
0	22709	4024	2
0	22719	4025	2
0	22762	4031	1
0	22778	4033	1
0	22801	4036	1
0	22811	4037	1
0	22825	4039	1
0	22846	4043	1
0	22867	4046	1
0	22906	4051	1
0	22926	4053	1
0	22947	4055	1
0	22988	4061	1
0	23003	4062	1
0	23015	4063	2
0	23026	4064	2
0	23037	4065	3
0	23063	4070	1
0	23097	4076	1
0	23116	4079	1
0	23123	4080	1
0	23130	4081	1
0	23148	4084	1
0	23166	4089	1
0	23188	4094	1
0	23211	4099	1
0	23230	4106	1
0	23239	4107	1
0	23249	4108	2
0	23285	4113	7
0	23296	4114	3
0	23306	4115	3
0	23332	4119	1
0	23342	4120	1
0	23368	4127	1
0	23382	4129	1
0	23399	4134	1
0	23413	4137	1
0	23438	4142	1
0	23456	4145	1
0	23468	4146	1
0	23480	4148	1
0	23494	4150	1
0	23507	4154	1
0	23518	4155	1
0	23561	4161	1
0	23580	4167	1
0	23615	4173	1
0	23624	4175	1
0	23645	4180	2
0	23665	4184	1
0	23699	4189	1
0	23706	4190	2
0	23712	4191	2
0	23720	4192	1
0	23726	4193	2
0	23756	4199	1
0	23825	4209	1
0	23835	4210	1
0	23850	4213	1
0	23861	4214	2
0	23877	4216	1
0	23893	4218	1
0	23907	4221	1
0	23941	4227	1
0	23950	4228	2
0	23959	4229	3
0	23968	4230	2
0	23983	4234	1
0	24008	4239	5
0	24023	4240	5
0	24065	4246	1
0	24084	4249	1
0	24136	4260	1
0	24152	4262	1
0	24171	4265	1
0	24182	4267	1
0	24192	4268	1
0	24203	4271	1
0	24233	4281	1
0	24240	4282	1
0	24261	4285	1
0	24298	4296	1
0	24312	4298	1
0	24321	4300	1
0	24341	4304	1
0	24365	4307	1
0	24390	4312	1
0	24417	4315	1
0	24455	4320	5
0	24464	4321	5
0	24499	4326	1
0	24531	4332	1
0	24557	4340	1
0	24589	4346	1
0	24621	4350	1
0	24638	4352	1
0	24687	4359	1
0	24697	4360	1
0	24750	4374	1
0	24778	4383	1
0	24785	4384	1
0	24856	4402	1
0	24877	4406	1
0	24886	4407	2
0	24897	4409	1
0	24917	4415	1
0	24959	4421	1
0	24969	4422	2
0	24993	4427	2
0	24999	4428	2
0	25008	4430	1
0	25020	4432	1
0	25050	4436	1
0	25079	4440	1
0	25085	4441	2
0	25095	4442	1
0	25148	4455	1
0	25201	4464	1
0	25222	4468	1
0	25251	4474	1
0	25284	4481	1
0	25302	4483	1
0	25321	4485	1
0	25347	4488	1
0	25358	4489	1
0	25374	4492	1
0	25386	4493	1
0	25396	4494	1
0	25435	4502	1
0	25460	4508	1
0	25494	4514	1
0	25509	4517	1
0	25515	4518	2
0	25534	4525	1
0	25550	4530	1
0	25559	4531	2
0	25576	4535	1
0	25600	4543	1
0	25611	4544	1
0	25641	4551	1
0	25677	4558	1
0	25702	4564	1
0	25712	4565	1
0	25729	4570	1
0	25741	4573	1
0	25747	4574	2
0	25754	4575	1
0	25764	4576	1
0	25782	4581	4
0	25800	4584	1
0	25810	4585	1
0	25836	4589	1
0	25846	4590	2
0	25853	4591	2
0	25861	4592	2
0	25868	4593	2
0	25874	4594	3
0	25880	4595	3
0	25916	4603	1
0	25948	4607	1
0	25979	4611	1
0	25998	4614	1
0	26014	4616	1
0	26028	4619	1
0	26035	4620	1
0	26058	4623	1
0	26074	4627	1
0	26084	4628	1
0	26103	4633	5
0	26109	4634	6
0	26134	4639	1
0	26149	4644	1
0	26161	4646	1
0	26172	4647	1
0	26204	4654	1
0	26214	4655	1
0	26223	4656	1
0	26252	4662	1
0	26262	4663	1
0	26288	4670	1
0	26324	4676	1
0	26331	4677	2
0	26337	4678	2
0	26366	4684	1
0	26384	4688	1
0	26394	4689	1
0	26401	4690	1
0	26411	4691	1
0	26445	4696	4
0	26451	4697	5
0	26462	4700	1
0	26528	4709	1
0	26537	4710	2
0	26585	4719	1
0	26592	4720	1
0	26612	4725	1
0	26629	4731	1
0	26644	4733	1
0	26650	4734	2
0	26670	4737	1
0	26694	4740	1
0	26712	4744	1
0	26733	4746	1
0	26743	4747	2
0	26752	4748	3
0	26760	4749	3
0	26775	4753	1
0	26801	4757	1
0	26823	4762	4
0	26833	4763	3
0	26841	4764	2
0	26873	4770	1
0	26891	4775	1
0	26904	4776	1
0	26915	4777	2
0	26926	4778	3
0	26947	4783	1
0	26973	4789	1
0	26986	4791	1
0	26997	4792	2
0	27008	4793	2
0	27016	4794	2
0	27038	4799	1
0	27068	4804	1
0	27075	4805	2
0	27081	4806	3
0	27088	4807	3
0	27094	4808	2
0	27124	4813	5
0	27134	4814	3
0	27144	4815	4
0	27154	4816	3
0	27163	4817	1
0	27173	4818	1
0	27202	4824	1
0	27223	4829	1
0	27233	4830	2
0	27241	4831	2
0	27251	4833	1
0	27257	4834	2
0	27272	4838	1
0	27303	4847	1
0	27312	4849	1
0	27356	4856	1
0	27451	4876	1
0	27474	4884	1
0	27485	4885	2
0	27495	4886	3
0	27537	4891	1
0	27548	4892	2
0	27607	4901	1
0	27635	4905	1
0	27647	4906	1
0	27658	4907	2
0	27667	4908	2
0	27673	4909	2
0	27684	4910	1
0	27699	4912	1
0	27744	4920	1
0	27772	4926	1
0	27788	4929	1
0	27807	4932	1
0	27833	4939	1
0	27844	4942	1
0	27855	4945	1
0	27866	4947	1
0	27878	4949	1
0	27885	4950	1
0	27917	4958	1
0	27924	4959	1
0	27993	4975	1
0	28005	4976	1
0	28015	4977	1
0	28035	4982	1
0	28060	4987	1
0	28071	4989	1
0	28092	4991	1
0	28103	4992	2
1	2388	402	1
1	2388	402	0
1	2454	414	1
1	2454	414	0
1	2479	417	1
1	2479	417	0
1	2507	423	1
1	2507	423	0
1	2519	425	1
1	2519	425	0
1	2526	426	1
1	2528	426	0
1	2548	431	1
1	2548	431	0
1	2549	431	1
1	2556	432	0
1	2563	433	1
1	2579	437	0
1	2606	442	1
1	2606	442	0
1	2615	443	1
1	2617	443	0
1	2650	447	1
1	2650	447	0
1	2668	449	1
1	2668	449	0
1	2669	449	1
1	2676	450	2
1	2678	450	1
1	2683	451	2
1	2685	451	1
1	2691	452	0
1	2696	453	1
1	2698	453	0
1	2703	454	1
1	2705	454	0
1	2717	456	1
1	2717	456	0
1	2737	460	1
1	2737	460	0
1	2748	463	1
1	2748	463	0
1	2759	466	1
1	2759	466	0
1	2767	467	1
1	2768	467	2
1	2771	467	1
1	2783	468	0
1	2806	472	1
1	2806	472	0
1	2825	477	1
1	2825	477	0
1	2840	479	1
1	2840	479	0
1	2854	481	1
1	2854	481	0
1	2881	485	1
1	2885	486	0
1	2909	493	1
1	2909	493	0
1	2914	494	1
1	2916	494	0
1	2921	495	1
1	2923	495	0
1	2954	503	1
1	2954	503	0
1	2977	507	1
1	2977	507	0
1	2991	509	1
1	2991	509	0
1	2996	510	1
1	2998	510	0
1	3056	524	1
1	3056	524	0
1	3070	527	1
1	3070	527	0
1	3077	528	1
1	3078	528	2
1	3080	528	1
1	3086	529	0
1	3101	534	1
1	3101	534	0
1	3102	534	1
1	3112	535	0
1	3131	539	1
1	3131	539	0
1	3148	541	1
1	3148	541	0
1	3149	541	1
1	3157	542	0
1	3166	544	1
1	3166	544	0
1	3197	552	1
1	3197	552	0
1	3224	558	1
1	3224	558	0
1	3233	559	1
1	3241	560	2
1	3256	563	1
1	3257	563	2
1	3258	563	3
1	3263	564	4
1	3265	564	3
1	3270	565	4
1	3271	565	5
1	3272	565	6
1	3274	565	5
1	3280	566	4
1	3286	567	3
1	3293	568	2
1	3303	569	1
1	3309	570	0
1	3324	573	1
1	3324	573	0
1	3342	575	1
1	3342	575	0
1	3349	576	1
1	3350	576	2
1	3352	576	1
1	3358	577	0
1	3363	578	1
1	3365	578	0
1	3386	586	1
1	3386	586	0
1	3409	588	1
1	3409	588	0
1	3432	591	1
1	3432	591	0
1	3433	591	1
1	3447	592	0
1	3471	595	1
1	3471	595	0
1	3494	598	1
1	3494	598	0
1	3504	599	1
1	3506	599	0
1	3515	600	1
1	3528	604	0
1	3537	606	1
1	3537	606	0
1	3553	610	1
1	3553	610	0
1	3564	612	1
1	3564	612	0
1	3573	614	1
1	3573	614	0
1	3593	616	1
1	3593	616	0
1	3604	617	1
1	3609	617	0
1	3634	620	1
1	3634	620	0
1	3644	621	1
1	3646	621	0
1	3663	623	1
1	3663	623	0
1	3683	625	1
1	3683	625	0
1	3720	630	1
1	3720	630	0
1	3729	631	1
1	3732	631	0
1	3765	636	1
1	3765	636	0
1	3776	638	1
1	3776	638	0
1	3803	645	1
1	3803	645	0
1	3826	649	1
1	3826	649	0
1	3846	653	1
1	3846	653	0
1	3851	654	1
1	3853	654	0
1	3872	661	1
1	3872	661	0
1	3880	663	1
1	3888	666	0
1	3893	667	1
1	3896	667	0
1	3931	673	1
1	3931	673	0
1	3946	675	1
1	3946	675	0
1	3954	676	1
1	3955	676	2
1	3957	676	1
1	3964	677	2
1	3966	677	1
1	3972	678	0
1	3977	679	1
1	3979	679	0
1	4008	686	1
1	4008	686	0
1	4013	687	1
1	4016	687	0
1	4029	689	1
1	4029	689	0
1	4094	701	1
1	4094	701	0
1	4135	706	1
1	4135	706	0
1	4144	707	1
1	4147	707	0
1	4201	714	1
1	4201	714	0
1	4202	714	1
1	4213	715	0
1	4250	720	1
1	4250	720	0
1	4276	723	1
1	4276	723	0
1	4293	726	1
1	4293	726	0
1	4324	734	1
1	4324	734	0
1	4325	734	1
1	4340	737	2
1	4346	739	1
1	4347	739	2
1	4356	740	1
1	4364	741	0
1	4373	743	1
1	4373	743	0
1	4374	743	1
1	4382	744	2
1	4384	744	1
1	4393	745	0
1	4400	746	1
1	4405	746	0
1	4420	749	1
1	4420	749	0
1	4428	750	1
1	4430	750	0
1	4443	753	1
1	4443	753	0
1	4459	757	1
1	4459	757	0
1	4477	760	1
1	4477	760	0
1	4482	761	1
1	4484	761	0
1	4489	762	1
1	4491	762	0
1	4507	765	1
1	4507	765	0
1	4516	767	1
1	4516	767	0
1	4537	770	1
1	4537	770	0
1	4538	770	1
1	4545	771	0
1	4577	781	1
1	4577	781	0
1	4584	782	1
1	4585	782	2
1	4587	782	1
1	4597	785	2
1	4606	787	1
1	4614	788	0
1	4636	794	1
1	4636	794	0
1	4696	810	1
1	4696	810	0
1	4714	814	1
1	4714	814	0
1	4781	827	1
1	4781	827	0
1	4796	829	1
1	4796	829	0
1	4797	829	1
1	4803	830	0
1	4827	837	1
1	4827	837	0
1	4839	839	1
1	4839	839	0
1	4852	842	1
1	4852	842	0
1	4853	842	1
1	4862	843	0
1	4873	845	1
1	4873	845	0
1	4874	845	1
1	4879	846	2
1	4885	846	1
1	4895	847	0
1	4910	849	1
1	4910	849	0
1	4919	850	1
1	4921	850	0
1	4943	855	1
1	4943	855	0
1	4948	856	1
1	4951	856	0
1	4991	864	1
1	4991	864	0
1	4992	864	1
1	4997	865	2
1	5001	866	3
1	5014	869	2
1	5019	870	3
1	5021	870	2
1	5026	871	3
1	5028	871	2
1	5034	872	1
1	5040	873	0
1	5054	876	1
1	5054	876	0
1	5070	879	1
1	5070	879	0
1	5083	882	1
1	5083	882	0
1	5084	882	1
1	5091	883	0
1	5111	886	1
1	5111	886	0
1	5136	889	1
1	5136	889	0
1	5151	891	1
1	5151	891	0
1	5156	892	1
1	5158	892	0
1	5183	898	1
1	5183	898	0
1	5190	899	1
1	5193	899	0
1	5200	900	1
1	5204	900	0
1	5223	903	1
1	5223	903	0
1	5230	904	1
1	5232	904	0
1	5252	909	1
1	5252	909	0
1	5257	910	1
1	5259	910	0
1	5274	913	1
1	5277	914	2
1	5278	914	3
1	5279	914	4
1	5283	915	3
1	5289	916	2
1	5294	917	3
1	5296	917	2
1	5304	918	1
1	5311	919	2
1	5316	919	1
1	5326	920	0
1	5333	921	1
1	5334	921	2
1	5338	921	1
1	5344	922	0
1	5353	924	1
1	5353	924	0
1	5371	928	1
1	5371	928	0
1	5414	935	1
1	5414	935	0
1	5466	948	1
1	5466	948	0
1	5478	950	1
1	5478	950	0
1	5489	952	1
1	5489	952	0
1	5505	955	1
1	5505	955	0
1	5506	955	1
1	5515	956	0
1	5583	970	1
1	5583	970	0
1	5602	972	1
1	5602	972	0
1	5616	974	1
1	5616	974	0
1	5639	978	1
1	5639	978	0
1	5659	981	1
1	5675	983	0
1	5741	993	1
1	5741	993	0
1	5772	997	1
1	5772	997	0
1	5812	1004	1
1	5812	1004	0
1	5835	1007	1
1	5835	1007	0
1	5855	1009	1
1	5855	1009	0
1	5880	1012	1
1	5880	1012	0
1	5881	1012	1
1	5891	1013	0
1	5908	1016	1
1	5908	1016	0
1	5932	1023	1
1	5932	1023	0
1	5937	1024	1
1	5940	1024	0
1	5947	1025	1
1	5951	1025	0
1	5962	1028	1
1	5962	1028	0
1	5995	1035	1
1	5995	1035	0
1	6053	1044	1
1	6053	1044	0
1	6072	1048	1
1	6072	1048	0
1	6073	1048	1
1	6082	1049	0
1	6093	1051	1
1	6093	1051	0
1	6098	1052	1
1	6100	1052	0
1	6118	1057	1
1	6118	1057	0
1	6128	1059	1
1	6129	1059	2
1	6134	1061	3
1	6138	1062	2
1	6144	1063	1
1	6150	1064	0
1	6185	1070	1
1	6185	1070	0
1	6192	1071	1
1	6194	1071	0
1	6203	1073	1
1	6203	1073	0
1	6208	1074	1
1	6211	1074	0
1	6224	1076	1
1	6224	1076	0
1	6225	1076	1
1	6234	1077	0
1	6257	1081	1
1	6257	1081	0
1	6275	1085	1
1	6275	1085	0
1	6276	1085	1
1	6284	1086	0
1	6289	1087	1
1	6291	1087	0
1	6300	1089	1
1	6300	1089	0
1	6331	1093	1
1	6331	1093	0
1	6347	1095	1
1	6347	1095	0
1	6372	1100	1
1	6372	1100	0
1	6405	1105	1
1	6405	1105	0
1	6412	1106	1
1	6415	1106	0
1	6445	1110	1
1	6445	1110	0
1	6463	1112	1
1	6477	1115	0
1	6486	1116	1
1	6488	1116	0
1	6511	1120	1
1	6511	1120	0
1	6518	1121	1
1	6519	1121	2
1	6521	1121	1
1	6527	1122	0
1	6532	1123	1
1	6534	1123	0
1	6539	1124	1
1	6541	1124	0
1	6561	1129	1
1	6561	1129	0
1	6570	1130	1
1	6572	1130	0
1	6599	1134	1
1	6599	1134	0
1	6600	1134	1
1	6608	1135	0
1	6617	1137	1
1	6617	1137	0
1	6651	1144	1
1	6651	1144	0
1	6663	1146	1
1	6663	1146	0
1	6677	1148	1
1	6677	1148	0
1	6708	1155	1
1	6708	1155	0
1	6717	1157	1
1	6717	1157	0
1	6726	1159	1
1	6726	1159	0
1	6772	1168	1
1	6772	1168	0
1	6779	1169	1
1	6781	1169	0
1	6789	1171	1
1	6797	1174	0
1	6802	1175	1
1	6804	1175	0
1	6837	1184	1
1	6837	1184	0
1	6848	1187	1
1	6848	1187	0
1	6864	1190	1
1	6864	1190	0
1	6872	1191	1
1	6876	1191	0
1	6903	1194	1
1	6903	1194	0
1	6928	1197	1
1	6928	1197	0
1	6987	1205	1
1	6987	1205	0
1	7046	1214	1
1	7046	1214	0
1	7077	1219	1
1	7077	1219	0
1	7082	1220	1
1	7085	1220	0
1	7109	1225	1
1	7109	1225	0
1	7143	1232	1
1	7143	1232	0
1	7164	1236	1
1	7164	1236	0
1	7182	1239	1
1	7182	1239	0
1	7187	1240	1
1	7188	1240	2
1	7190	1240	1
1	7198	1241	0
1	7220	1244	1
1	7220	1244	0
1	7253	1248	1
1	7253	1248	0
1	7274	1253	1
1	7274	1253	0
1	7298	1257	1
1	7298	1257	0
1	7317	1259	1
1	7317	1259	0
1	7341	1263	1
1	7341	1263	0
1	7349	1264	1
1	7351	1264	0
1	7365	1266	1
1	7365	1266	0
1	7401	1273	1
1	7401	1273	0
1	7430	1280	1
1	7430	1280	0
1	7431	1280	1
1	7438	1281	0
1	7445	1282	1
1	7449	1282	0
1	7465	1286	1
1	7465	1286	0
1	7522	1297	1
1	7522	1297	0
1	7542	1301	1
1	7542	1301	0
1	7547	1302	1
1	7549	1302	0
1	7558	1304	1
1	7558	1304	0
1	7579	1308	1
1	7579	1308	0
1	7590	1310	1
1	7590	1310	0
1	7615	1316	1
1	7615	1316	0
1	7622	1317	1
1	7626	1317	0
1	7649	1320	1
1	7649	1320	0
1	7710	1332	1
1	7710	1332	0
1	7728	1336	1
1	7728	1336	0
1	7757	1344	1
1	7757	1344	0
1	7758	1344	1
1	7769	1345	0
1	7786	1350	1
1	7786	1350	0
1	7803	1352	1
1	7803	1352	0
1	7804	1352	1
1	7812	1353	0
1	7817	1354	1
1	7819	1354	0
1	7830	1357	1
1	7830	1357	0
1	7852	1363	1
1	7852	1363	0
1	7874	1369	1
1	7874	1369	0
1	7909	1374	1
1	7909	1374	0
1	7932	1378	1
1	7932	1378	0
1	7952	1383	1
1	7952	1383	0
1	7960	1384	1
1	7962	1384	0
1	7969	1385	1
1	7971	1385	0
1	7984	1387	1
1	7984	1387	0
1	7985	1387	1
1	7986	1387	2
1	7997	1388	1
1	8007	1389	0
1	8018	1391	1
1	8018	1391	0
1	8019	1391	1
1	8031	1395	2
1	8032	1395	3
1	8036	1396	2
1	8037	1396	3
1	8043	1397	2
1	8049	1398	1
1	8055	1399	0
1	8126	1412	1
1	8126	1412	0
1	8161	1417	1
1	8161	1417	0
1	8175	1419	1