version 3
run Experimentos-289-20260508-20:05:50-29281
attr configname Experimentos
attr datetime 20260508-20:05:50
attr datetimef 20260508-200550
attr experiment Experimentos
attr inifile TwoQueues.ini
attr iterationvars "$p=0.6, $q=0.3, $Y=10, $m=4"
attr iterationvarsd p=0.6/q=0.3/Y=10/m=4
attr iterationvarsf p=0.6,q=0.3,Y=10,m=4-
attr measurement "$p=0.6, $q=0.3, $Y=10, $m=4"
attr network TwoQueues
attr processid 29281
attr repetition 9
attr replication #9
attr resultdir results
attr runnumber 289
attr seedset 289
itervar Y 10
itervar m 4
itervar p 0.6
itervar q 0.3
config description "Barrido completo de parámetros Proyecto 12"
config **.source1.p 0.6
config **.source1.q 0.2
config **.source2.p 0.6
config **.source2.q 0.3
config **.serverWithMaintenance.Y 10
config **.serverWithMaintenance.m 4
config network TwoQueues
config cpu-time-limit 5000s
config sim-time-limit 5000s
config warmup-period 400s
config repeat 20
config output-scalar-file results/Experimentos-p=0.6,q=0.3,Y=10,m=4--#9.sca
config output-vector-file results/Experimentos-p=0.6,q=0.3,Y=10,m=4--#9.vec
config **.vector-recording true

vector 0 TwoQueues.serverWithMaintenance residenceTime2:vector ETV
attr recordingmode vector
attr source delay2
attr title "Residence Time Class 2"
vector 1 TwoQueues.queue2 queueLengthStats:vector ETV
attr recordingmode vector
attr source qlen
attr title "Average Queue Length"
vector 2 TwoQueues.queue1 queueLengthStats:vector ETV
attr recordingmode vector
attr source qlen
attr title "Average Queue Length"
vector 3 TwoQueues.server residenceTime1:vector ETV
attr recordingmode vector
attr source delay1
attr title "Residence Time Class 1"
vector 4 TwoQueues.server throughputStats1:vector ETV
attr recordingmode vector
attr source throughput1
attr title "Throughput Class 1"
0	2622	402	1
0	2629	403	1
0	2652	407	1
0	2684	412	4
0	2690	413	3
0	2697	414	1
0	2715	418	1
0	2724	420	1
0	2736	421	1
0	2783	427	1
0	2794	428	1
0	2812	430	1
0	2828	432	1
0	2865	437	5
0	2871	438	4
0	2881	440	1
0	2890	441	2
0	2896	442	2
0	2906	443	3
0	2917	444	4
0	2925	445	3
0	2943	448	1
0	2990	457	1
0	3013	462	6
0	3022	463	5
0	3034	464	4
0	3042	465	4
0	3048	466	3
0	3077	471	1
0	3122	477	1
0	3139	479	1
0	3182	487	1
0	3202	489	1
0	3263	498	1
0	3274	499	1
0	3298	503	1
0	3305	504	1
0	3327	508	1
0	3374	514	1
0	3384	515	2
0	3394	516	1
0	3429	523	1
0	3440	524	2
0	3471	529	3
0	3482	531	1
0	3499	533	1
0	3509	534	2
0	3580	543	1
0	3631	550	1
0	3644	551	2
0	3684	556	1
0	3706	558	1
0	3730	561	1
0	3761	566	5
0	3776	571	1
0	3787	573	1
0	3799	574	1
0	3813	577	1
0	3829	580	1
0	3856	586	1
0	3867	587	1
0	3875	588	2
0	3892	590	1
0	3918	595	6
0	3929	596	5
0	3992	605	1
0	4014	609	1
0	4023	610	2
0	4049	613	1
0	4078	617	1
0	4097	619	1
0	4108	620	1
0	4140	624	1
0	4163	629	3
0	4175	630	4
0	4193	632	1
0	4204	633	2
0	4213	634	2
0	4221	635	3
0	4274	643	1
0	4288	645	1
0	4300	646	1
0	4312	647	1
0	4349	652	4
0	4361	653	3
0	4373	654	1
0	4397	657	1
0	4404	658	2
0	4416	659	2
0	4429	660	1
0	4441	661	2
0	4452	662	1
0	4464	663	1
0	4499	668	5
0	4519	672	1
0	4535	674	1
0	4546	675	1
0	4565	677	1
0	4581	679	1
0	4597	681	1
0	4608	682	1
0	4614	683	2
0	4682	692	1
0	4715	697	5
0	4724	698	6
0	4732	699	4
0	4764	704	1
0	4774	705	1
0	4788	707	1
0	4798	708	1
0	4807	709	1
0	4814	710	1
0	4826	713	1
0	4868	718	6
0	4881	719	5
0	4892	720	4
0	4922	724	1
0	4992	737	1
0	5019	740	1
0	5043	743	1
0	5053	744	1
0	5064	747	1
0	5104	753	1
0	5147	763	1
0	5165	766	1
0	5177	768	1
0	5230	778	1
0	5240	779	2
0	5342	792	1
0	5365	795	1
0	5405	800	1
0	5442	805	1
0	5462	807	1
0	5498	812	6
0	5510	814	1
0	5536	818	1
0	5545	819	2
0	5593	827	1
0	5605	828	1
0	5624	831	1
0	5646	836	1
0	5660	839	1
0	5686	843	1
0	5726	848	2
0	5735	849	3
0	5743	850	4
0	5750	851	1
0	5757	852	1
0	5781	858	1
0	5807	863	1
0	5816	864	2
0	5869	871	1
0	5891	874	1
0	5914	879	3
0	5947	883	1
0	5959	884	1
0	5969	885	1
0	5976	886	1
0	5989	890	1
0	6022	895	1
0	6046	901	1
0	6056	902	1
0	6075	904	1
0	6104	909	3
0	6114	910	4
0	6127	911	1
0	6140	912	1
0	6164	915	1
0	6182	917	1
0	6202	919	1
0	6221	921	1
0	6231	922	2
0	6254	924	1
0	6293	929	3
0	6338	936	1
0	6393	943	1
0	6404	944	1
0	6488	957	1
0	6501	958	2
0	6544	963	1
0	6556	964	2
0	6567	965	1
0	6651	979	1
0	6673	984	5
0	6679	985	5
0	6686	986	6
0	6693	987	4
0	6699	988	3
0	6708	989	3
0	6719	991	1
0	6732	994	1
0	6752	996	1
0	6765	997	1
0	6802	1002	2
0	6919	1019	1
0	6930	1020	1
0	6963	1024	1
0	7028	1032	1
0	7039	1033	1
0	7051	1034	1
0	7111	1041	1
0	7140	1045	1
0	7151	1046	1
0	7187	1051	5
0	7194	1052	2
0	7200	1053	2
0	7219	1056	1
0	7228	1057	2
0	7247	1060	1
0	7265	1062	1
0	7293	1066	1
0	7305	1067	1
0	7315	1068	2
0	7337	1073	7
0	7346	1074	6
0	7355	1075	2
0	7363	1076	3
0	7372	1077	4
0	7399	1082	1
0	7427	1085	1
0	7447	1087	1
0	7473	1090	1
0	7485	1091	1
0	7528	1096	3
0	7595	1105	1
0	7645	1112	1
0	7677	1116	1
0	7690	1117	1
0	7700	1118	2
0	7740	1123	1
0	7761	1125	1
0	7782	1127	1
0	7806	1130	1
0	7909	1145	1
0	7930	1148	1
0	7948	1151	1
0	7960	1152	2
0	7971	1153	2
0	7980	1154	3
0	7990	1156	1
0	7996	1157	2
0	8003	1158	1
0	8018	1162	1
0	8052	1167	5
0	8062	1168	6
0	8074	1169	3
0	8088	1170	2
0	8098	1171	2
0	8130	1181	1
0	8141	1184	1
0	8162	1187	1
0	8169	1188	1
0	8183	1190	1
0	8216	1195	2
0	8230	1198	1
0	8243	1200	1
0	8284	1205	1
0	8316	1209	1
0	8329	1210	1
0	8341	1211	2
0	8351	1212	2
0	8367	1214	1
0	8384	1216	1
0	8412	1221	5
0	8419	1222	1
0	8458	1230	1
0	8505	1236	1
0	8518	1237	1
0	8529	1238	1
0	8549	1240	1
0	8561	1241	1
0	8586	1244	1
0	8643	1252	1
0	8686	1257	2
0	8745	1265	1
0	8762	1267	1
0	8779	1271	1
0	8785	1272	2
0	8799	1275	1
0	8857	1283	1
0	8867	1284	2
0	8892	1287	1
0	8906	1288	1
0	8959	1295	1
0	9071	1317	1
0	9082	1319	1
0	9099	1321	1
0	9122	1324	1
0	9134	1326	1
0	9157	1331	1
0	9182	1335	1
0	9189	1336	1
0	9200	1339	1
0	9245	1345	1
0	9290	1351	1
0	9409	1367	1
0	9422	1368	1
0	9439	1370	1
0	9461	1372	1
0	9472	1373	2
0	9485	1374	2
0	9496	1375	2
0	9507	1376	3
0	9538	1381	7
0	9547	1382	7
0	9558	1383	4
0	9570	1384	1
0	9606	1391	1
0	9632	1394	1
0	9656	1397	1
0	9676	1399	1
0	9691	1400	1
0	9737	1406	1
0	9774	1411	1
0	9795	1415	1
0	9866	1428	1
0	9900	1432	1
0	9975	1442	1
0	10043	1456	1
0	10049	1457	2
0	10058	1459	1
0	10071	1460	1
0	10087	1462	1
0	10116	1467	5
0	10123	1468	3
0	10136	1469	2
0	10146	1470	2
0	10192	1476	1
0	10203	1477	1
0	10251	1484	1
0	10261	1485	1
0	10287	1489	1
0	10299	1490	1
0	10333	1495	4
0	10339	1496	3
0	10350	1499	1
0	10368	1501	1
0	10386	1503	1
0	10406	1506	1
0	10439	1510	1
0	10449	1511	1
0	10468	1513	1
0	10478	1514	2
0	10502	1519	2
0	10508	1520	3
0	10611	1535	1
0	10622	1536	1
0	10632	1537	1
0	10639	1538	1
0	10660	1541	1
0	10671	1543	1
0	10683	1544	1
0	10721	1549	1
0	10761	1554	5
0	10770	1555	4
0	10777	1556	3
0	10787	1557	2
0	10795	1558	2
0	10802	1559	1
0	10809	1560	1
0	10833	1567	1
0	10840	1568	1
0	10885	1576	1
0	10917	1581	6
0	10926	1582	6
0	10936	1583	6
0	10948	1584	6
0	10961	1585	3
0	10972	1586	3
0	10982	1587	3
0	10993	1589	1
0	11012	1591	1
0	11025	1592	2
0	11068	1597	6
0	11079	1598	3
0	11090	1599	4
0	11101	1600	1
0	11126	1603	1
0	11175	1612	1
0	11196	1616	1
0	11216	1619	1
0	11228	1620	1
0	11250	1624	1
0	11271	1629	6
0	11283	1630	3
0	11317	1636	1
0	11324	1637	2
0	11332	1638	3
0	11339	1639	4
0	11345	1640	4
0	11354	1641	4
0	11362	1642	5
0	11371	1643	5
0	11411	1650	1
0	11424	1651	1
0	11436	1652	2
0	11448	1653	1
0	11459	1654	2
0	11471	1655	2
0	11503	1660	1
0	11515	1663	1
0	11526	1664	2
0	11549	1667	1
0	11614	1676	1
0	11641	1679	1
0	11670	1683	1
0	11701	1690	1
0	11711	1691	1
0	11727	1693	1
0	11746	1696	1
0	11753	1697	1
0	11774	1700	1
0	11804	1706	1
0	11828	1711	4
0	11839	1712	4
0	11851	1713	1
0	11877	1716	1
0	11887	1717	2
0	11925	1721	1
0	11952	1724	1
0	11975	1727	1
0	11986	1728	1
0	11997	1729	1
0	12035	1734	4
0	12041	1735	3
0	12078	1740	1
0	12116	1749	1
0	12130	1752	1
0	12156	1756	1
0	12196	1761	1
0	12229	1769	1
0	12239	1770	1
0	12251	1771	1
0	12276	1776	4
0	12320	1784	1
0	12330	1785	2
0	12350	1787	1
0	12414	1795	1
0	12438	1798	1
0	12455	1800	1
0	12472	1802	1
0	12505	1806	1
0	12516	1807	1
0	12555	1812	5
0	12573	1814	1
0	12583	1815	1
0	12601	1817	1
0	12669	1826	1
0	12697	1829	1
0	12717	1831	1
0	12729	1832	1
0	12774	1838	1
0	12794	1840	1
0	12829	1845	1
0	12841	1847	1
0	12873	1851	1
0	12884	1852	2
0	12895	1853	3
0	12906	1854	3
0	12914	1855	3
0	12979	1867	1
0	12998	1869	1
0	13011	1870	2
0	13052	1875	3
0	13062	1876	3
0	13074	1877	3
0	13105	1881	1
0	13121	1883	1
0	13138	1885	1
0	13150	1886	2
0	13159	1887	2
0	13169	1888	1
0	13184	1889	1
0	13210	1894	6
0	13219	1895	7
0	13226	1896	7
0	13233	1897	6
0	13239	1898	5
0	13249	1899	4
0	13260	1900	4
0	13268	1901	2
0	13277	1903	1
0	13287	1904	1
0	13324	1909	5
0	13335	1910	5
0	13347	1911	2
0	13356	1912	2
0	13363	1913	1
0	13370	1914	1
0	13388	1918	1
0	13397	1920	1
0	13435	1926	1
0	13453	1928	1
0	13497	1935	1
0	13508	1936	2
0	13517	1937	2
0	13549	1941	1
0	13568	1943	1
0	13600	1947	1
0	13612	1948	2
0	13624	1949	1
0	13633	1950	2
0	13654	1952	1
0	13694	1957	6
0	13705	1958	4
0	13737	1964	1
0	13747	1966	1
0	13756	1967	2
0	13794	1974	1
0	13813	1977	1
0	13852	1984	1
0	13863	1985	2
0	13946	1999	1
0	13987	2004	6
0	13998	2005	7
0	14008	2006	7
0	14018	2007	5
0	14028	2008	5
0	14040	2009	1
0	14083	2019	1
0	14092	2021	1
0	14099	2022	1
0	14125	2026	1
0	14167	2031	5
0	14178	2032	3
0	14204	2035	1
0	14235	2041	1
0	14247	2042	1
0	14257	2043	1
0	14277	2048	1
0	14295	2052	1
0	14370	2064	1
0	14383	2065	2
0	14425	2070	6
0	14435	2071	4
0	14447	2072	1
0	14459	2073	1
0	14516	2081	1
0	14624	2105	1
0	14634	2106	1
0	14649	2110	1
0	14679	2115	1
0	14694	2117	1
0	14724	2122	6
0	14730	2123	5
0	14736	2124	3
0	14749	2127	1
0	14761	2129	1
0	14782	2132	1
0	14792	2134	1
0	14798	2135	2
0	14805	2136	1
0	14850	2143	1
0	14892	2148	3
0	14909	2150	1
0	14999	2161	1
0	15009	2162	2
0	15019	2163	3
0	15083	2172	1
0	15118	2176	1
0	15141	2179	1
0	15162	2181	1
0	15224	2189	1
0	15264	2194	5
0	15275	2195	2
0	15288	2196	1
0	15299	2197	1
0	15330	2201	1
0	15341	2202	1
0	15397	2211	1
0	15416	2214	1
0	15440	2220	1
0	15451	2221	1
0	15474	2226	2
0	15480	2227	2
0	15499	2231	1
0	15506	2232	2
0	15512	2233	2
0	15519	2234	1
0	15536	2236	1
0	15548	2237	1
0	15574	2240	1
0	15590	2242	1
0	15619	2247	5
0	15625	2248	6
0	15631	2249	5
0	15641	2250	6
0	15658	2253	1
0	15679	2256	1
0	15697	2258	1
0	15742	2264	1
0	15776	2271	1
0	15793	2273	1
0	15815	2278	5
0	15824	2279	5
0	15858	2287	1
0	15864	2288	2
0	15885	2291	1
0	15903	2295	1
0	15910	2296	1
0	15960	2308	1
0	15966	2309	2
0	15973	2310	1
0	15994	2315	4
0	16003	2316	3
0	16012	2317	4
0	16020	2318	4
0	16040	2322	1
0	16128	2333	1
0	16159	2337	1
0	16170	2338	1
0	16181	2339	1
0	16219	2344	1
0	16248	2349	3
0	16258	2350	3
0	16304	2358	1
0	16338	2364	1
0	16346	2365	1
0	16352	2366	2
0	16363	2368	1
0	16377	2371	1
0	16395	2374	1
0	16425	2379	1
0	16450	2384	5
0	16457	2385	3
0	16463	2386	2
0	16537	2397	1
0	16557	2399	1
0	16570	2400	1
0	16583	2401	1
0	16609	2404	1
0	16634	2406	1
0	16699	2415	1
0	16737	2420	5
0	16748	2421	1
0	16759	2422	1
0	16770	2423	1
0	16868	2439	1
0	16881	2440	2
0	16890	2441	2
0	16896	2442	3
0	16923	2448	1
0	16930	2449	1
0	16951	2454	4
0	16968	2456	1
0	16979	2457	1
0	17027	2467	1
0	17091	2477	1
0	17125	2481	1
0	17142	2483	1
0	17211	2492	1
0	17230	2494	1
0	17277	2502	1
0	17311	2507	2
0	17348	2512	1
0	17366	2515	1
0	17423	2522	1
0	17443	2524	1
0	17504	2532	1
0	17554	2540	1
0	17565	2543	1
0	17588	2551	1
0	17598	2552	1
0	17626	2557	5
0	17632	2558	4
0	17638	2559	3
0	17706	2578	1
0	17717	2581	1
0	17738	2585	1
0	17761	2587	1
0	17772	2588	1
0	17824	2595	1
0	17834	2596	2
0	17932	2610	1
0	17956	2613	1
0	17975	2615	1
0	18015	2621	1
0	18025	2622	1
0	18062	2628	1
0	18087	2632	1
0	18099	2633	1
0	18109	2634	1
0	18136	2640	1
0	18157	2645	1
0	18164	2646	1
0	18194	2650	1
0	18206	2652	1
0	18230	2655	1
0	18242	2656	1
0	18271	2659	1
0	18281	2660	2
0	18299	2662	1
0	18317	2664	1
0	18344	2669	2
0	18353	2670	2
0	18366	2674	1
0	18459	2694	1
0	18470	2695	2
0	18480	2696	1
0	18490	2697	1
0	18536	2708	1
0	18549	2710	1
0	18556	2711	2
0	18586	2716	6
0	18600	2717	6
0	18610	2718	2
0	18622	2719	1
0	18692	2729	1
0	18703	2732	1
0	18723	2739	1
0	18733	2740	2
0	18745	2741	2
0	18753	2742	2
0	18807	2750	1
0	18817	2751	1
0	18853	2759	1
0	18929	2769	1
0	18949	2771	1
0	18972	2774	1
0	19010	2779	1
0	19020	2780	1
0	19038	2784	1
0	19052	2786	1
0	19078	2791	3
0	19089	2793	1
0	19103	2795	1
0	19124	2797	1
0	19162	2802	1
0	19176	2803	1
0	19200	2807	1
0	19207	2808	1
0	19239	2814	1
0	19246	2815	1
0	19285	2820	5
0	19294	2821	3
0	19314	2824	1
0	19326	2825	1
0	19337	2826	1
0	19370	2832	1
0	19401	2835	1
0	19425	2838	1
0	19437	2839	1
0	19454	2841	1
0	19494	2846	5
0	19507	2847	5
0	19530	2850	1
0	19540	2851	1
0	19581	2857	1
0	19634	2865	1
0	19640	2866	2
0	19680	2872	1
0	19696	2873	2
0	19708	2874	1
0	19756	2880	1
0	19773	2882	1
0	19821	2888	1
0	19858	2893	1
0	19885	2897	1
0	19897	2899	1
0	19904	2900	1
0	19935	2908	1
0	19948	2912	1
0	19959	2913	1
0	20002	2918	2
0	20012	2919	2
0	20031	2921	1
0	20043	2922	2
0	20054	2923	2
0	20064	2924	3
0	20073	2925	2
0	20084	2927	1
0	20095	2928	1
0	20119	2931	1
0	20154	2936	2
0	20198	2942	1
0	20216	2945	1
0	20223	2946	1
0	20241	2950	1
0	20258	2952	1
0	20267	2953	2
0	20274	2954	1
0	20285	2957	1
0	20315	2962	1
0	20341	2967	5
0	20352	2968	3
0	20413	2976	1
0	20439	2979	1
0	20450	2980	1
0	20462	2981	1
0	20474	2982	1
0	20492	2985	1
0	20503	2987	1
0	20526	2989	1
0	20564	2994	4
0	20574	2995	3
0	20580	2996	2
0	20603	2999	1
0	20675	3011	1
0	20682	3012	1
0	20725	3021	1
0	20750	3026	1
0	20781	3030	1
0	20834	3038	1
0	20851	3043	3
0	20857	3044	2
0	20885	3049	1
0	20897	3050	1
0	20915	3052	1
0	20946	3056	1
0	20953	3057	1
0	20974	3060	1
0	20995	3062	1
0	21006	3063	1
0	21049	3068	3
0	21060	3069	1
0	21074	3070	1
0	21087	3071	1
0	21098	3072	2
0	21108	3073	2
0	21126	3075	1
0	21154	3078	1
0	21171	3080	1
0	21277	3100	1
0	21359	3112	1
0	21392	3116	1
0	21402	3117	2
0	21418	3119	1
0	21551	3140	1
0	21560	3142	1
0	21593	3146	1
0	21623	3150	1
0	21635	3151	1
0	21656	3155	1
0	21679	3160	5
0	21689	3161	1
0	21707	3164	1
0	21717	3165	1
0	21783	3178	1
0	21816	3186	1
0	21846	3190	1
0	21875	3193	1
0	21949	3204	1
0	21978	3208	1
0	22016	3213	5
0	22033	3215	1
0	22071	3220	1
0	22086	3221	1
0	22117	3225	1
0	22158	3230	1
0	22170	3231	1
0	22199	3234	1
0	22209	3235	2
0	22232	3238	1
0	22328	3252	1
0	22381	3262	1
0	22419	3267	1
0	22430	3268	1
0	22441	3269	1
0	22516	3282	1
0	22534	3284	1
0	22544	3285	1
0	22554	3286	1
0	22580	3289	1
0	22622	3294	2
0	22661	3299	1
0	22675	3300	1
0	22695	3302	1
0	22727	3306	1
0	22799	3316	1
0	22809	3317	1
0	22820	3320	1
0	22852	3326	1
0	22869	3329	1
0	22906	3334	6
0	22916	3335	5
0	22990	3348	1
0	23012	3353	1
0	23023	3356	1
0	23050	3364	1
0	23057	3365	2
0	23064	3366	2
0	23071	3367	2
0	23077	3368	2
0	23094	3373	5
0	23101	3374	3
0	23112	3375	2
0	23120	3376	2
0	23129	3377	3
0	23142	3380	1
0	23186	3389	1
0	23197	3390	1
0	23209	3391	1
0	23239	3395	1
0	23277	3400	3
0	23288	3401	4
0	23336	3407	1
0	23384	3413	1
0	23429	3419	1
0	23441	3420	1
0	23455	3421	1
0	23465	3422	2
0	23581	3443	1
0	23599	3445	1
0	23620	3450	6
0	23626	3451	6
0	23639	3455	1
0	23648	3457	1
0	23679	3464	1
0	23692	3465	1
0	23703	3466	1
0	23722	3469	1
0	23731	3471	1
0	23744	3472	1
0	23796	3479	1
0	23819	3482	1
0	23829	3483	1
0	23838	3484	1
0	23860	3489	1
0	23874	3492	1
0	23888	3494	1
0	23898	3495	1
0	23907	3496	1
0	23927	3500	1
0	23976	3508	1
0	23987	3509	2
0	24041	3516	1
0	24052	3517	2
0	24072	3522	1
0	24221	3543	1
0	24231	3544	2
0	24257	3549	1
0	24275	3551	1
0	24294	3554	1
0	24323	3559	3
0	24332	3560	4
0	24384	3570	1
0	24414	3575	1
0	24429	3576	1
0	24442	3577	2
0	24460	3579	1
0	24485	3582	1
0	24497	3583	1
0	24509	3584	1
0	24549	3589	3
0	24563	3590	2
0	24573	3591	2
0	24582	3592	3
0	24657	3609	1
0	24663	3610	2
0	24670	3611	1
0	24755	3626	1
0	24765	3627	1
0	24785	3629	1
0	24827	3634	3
0	24838	3635	2
0	24872	3640	1
0	24890	3643	1
0	24909	3646	1
0	24920	3647	1
0	24939	3650	1
0	24977	3657	1
0	24990	3658	1
0	25001	3659	1
0	25068	3668	1
0	25080	3670	1
0	25100	3673	1
0	25118	3675	1
0	25127	3676	2
0	25169	3682	1
0	25192	3685	1
0	25230	3692	1
0	25241	3693	2
0	25275	3698	1
0	25297	3703	6
0	25307	3704	1
0	25387	3718	1
0	25439	3730	1
0	25449	3731	2
0	25458	3732	2
0	25474	3734	1
0	25490	3737	1
0	25509	3740	1
0	25521	3741	2
0	25563	3746	5
0	25575	3747	4
0	25585	3748	3
0	25624	3756	1
0	25651	3761	1
0	25661	3762	1
0	25668	3763	1
0	25675	3764	1
0	25684	3766	1
0	25722	3772	1
0	25770	3777	6
0	25780	3778	3
0	25792	3779	1
0	25836	3785	1
0	25860	3788	1
0	25879	3790	1
0	25889	3791	2
0	25910	3793	1
0	25921	3794	1
0	25932	3795	1
0	25974	3800	5
0	25984	3801	5
0	25993	3802	6
0	26110	3823	1
0	26134	3826	1
0	26145	3827	2
0	26156	3828	1
0	26164	3829	2
0	26170	3830	2
0	26176	3831	3
0	26207	3836	4
0	26216	3837	4
0	26222	3838	4
0	26231	3839	5
0	26245	3841	1
0	26265	3843	1
0	26313	3849	1
0	26326	3850	1
0	26413	3862	1
0	26437	3865	1
0	26468	3870	4
0	26474	3871	4
0	26487	3872	3
0	26497	3873	2
0	26505	3874	3
0	26514	3875	4
0	26531	3880	1
0	26556	3885	1
0	26574	3889	1
0	26583	3891	1
0	26617	3896	4
0	26645	3900	1
0	26654	3901	2
0	26688	3905	1
0	26702	3906	1
0	26715	3907	1
0	26741	3910	1
0	26785	3916	1
0	26812	3919	1
0	26824	3920	2
0	26860	3925	5
0	26881	3929	1
0	26950	3938	1
0	26963	3939	1
0	26973	3940	2
0	26984	3941	1
0	27041	3948	1
0	27059	3950	1
0	27070	3951	1
0	27081	3952	1
0	27125	3957	3
0	27135	3958	3
0	27188	3965	1
0	27209	3967	1
0	27221	3968	1
0	27253	3972	1
0	27264	3973	2
0	27274	3974	2
0	27300	3977	1
0	27312	3978	2
0	27351	3983	6
0	27361	3984	7
0	27371	3985	7
0	27383	3986	2
0	27407	3989	1
0	27424	3990	1
0	27457	3994	1
0	27467	3995	2
0	27479	3996	1
0	27498	3998	1
0	27543	4004	1
0	27600	4017	1
0	27611	4018	1
0	27624	4019	1
0	27635	4020	1
0	27647	4021	1
0	27673	4026	1
0	27710	4034	1
0	27716	4035	2
0	27778	4044	1
0	27809	4049	6
0	27822	4050	3
0	27832	4051	3
0	27844	4052	1
0	27869	4056	1
0	27876	4057	1
0	27883	4058	1
0	27901	4062	1
0	27915	4064	1
0	27928	4066	1
0	27971	4071	5
0	27982	4072	5
0	27992	4073	6
0	28003	4074	4
0	28017	4076	1
0	28061	4085	1
0	28074	4086	1
0	28085	4087	2
0	28094	4088	3
0	28110	4091	1
0	28139	4096	4
0	28151	4097	2
0	28174	4102	1
0	28184	4103	2
0	28206	4107	1
0	28217	4108	2
0	28231	4110	1
0	28244	4111	1
0	28265	4114	1
0	28274	4115	2
0	28305	4120	5
0	28315	4121	5
0	28326	4122	6
0	28338	4123	1
0	28382	4128	1
0	28399	4130	1
0	28430	4135	1
0	28476	4143	1
0	28488	4144	1
0	28504	4145	2
0	28570	4157	1
0	28597	4162	1
0	28611	4164	1
0	28668	4173	1
0	28674	4174	2
0	28684	4175	1
0	28708	4179	1
0	28721	4180	1
0	28731	4181	2
0	28743	4182	1
0	28786	4187	5
0	28797	4188	4
0	28807	4189	2
0	28857	4198	1
0	28867	4199	2
0	28877	4200	1
0	28884	4201	1
0	28910	4205	1
0	28952	4210	1
0	28963	4211	1
0	29000	4216	4
0	29010	4217	3
0	29023	4218	1
0	29045	4221	1
0	29108	4235	1
0	29144	4241	1
0	29163	4243	1
0	29174	4244	2
0	29187	4245	1
0	29198	4246	1
0	29237	4251	5
0	29248	4252	6
0	29263	4253	6
0	29273	4254	3
0	29284	4255	3
0	29294	4256	2
0	29310	4258	1
0	29317	4259	1
0	29333	4261	1
0	29346	4263	1
0	29372	4268	6
0	29378	4269	5
0	29400	4274	1
0	29414	4277	1
0	29422	4278	1
0	29433	4279	2
0	29444	4280	2
0	29453	4281	2
0	29459	4282	2
0	29475	4285	1
0	29492	4290	3
0	29499	4291	2
0	29511	4292	2
0	29522	4293	2
0	29539	4295	1
0	29564	4298	1
0	29590	4303	1
0	29632	4308	1
0	29656	4311	1
0	29667	4312	1
0	29691	4317	5
0	29711	4322	1
0	29750	4328	1
0	29786	4338	1
0	29854	4347	1
0	29877	4350	1
0	29902	4354	1
0	30007	4369	1
0	30017	4370	1
0	30034	4372	1
0	30078	4377	6
0	30089	4378	4
0	30101	4379	3
0	30112	4380	3
0	30122	4381	3
0	30134	4382	1
0	30149	4384	1
0	30166	4386	1
0	30172	4387	2
0	30181	4389	1
0	30223	4394	4
0	30233	4395	3
0	30243	4396	4
0	30270	4400	1
0	30276	4401	2
0	30283	4402	1
0	30290	4403	1
0	30310	4407	1
0	30330	4409	1
0	30366	4414	1
0	30408	4419	6
0	30419	4420	5
0	30440	4422	1
0	30451	4423	1
0	30462	4424	1
0	30504	4429	1
0	30515	4430	1
0	30533	4432	1
0	30584	4438	1
0	30614	4442	1
0	30655	4447	4
0	30665	4448	4
0	30674	4449	3
0	30707	4455	1
0	30713	4456	2
0	30730	4461	1
0	30747	4463	1
0	30761	4465	1
0	30791	4470	1
0	30798	4471	1
0	30820	4476	4
0	30833	4477	2
0	30922	4493	1
0	30937	4494	1
0	30955	4496	1
0	30966	4497	2
0	30977	4498	2
0	30987	4499	2
0	30998	4500	1
0	31011	4501	2
0	31047	4506	6
0	31058	4507	7
0	31068	4508	8
0	31080	4509	3
0	31106	4514	1
0	31126	4518	1
0	31162	4525	1
0	31188	4528	1
0	31198	4529	2
0	31248	4535	1
0	31286	4540	6
0	31298	4541	3
0	31309	4542	3
0	31321	4543	3
0	31332	4544	2
0	31344	4545	1
0	31369	4548	1
0	31391	4551	1
0	31400	4553	1
0	31433	4558	1
0	31473	4563	1
0	31492	4565	1
0	31506	4566	1
0	31546	4571	1
0	31556	4572	2
0	31570	4573	1
0	31608	4578	1
0	31700	4596	1
0	31716	4598	1
0	31734	4602	1
0	31807	4612	1
0	31819	4613	1
0	31832	4614	1
0	31853	4617	1
0	31871	4618	1
0	31881	4619	2
0	31891	4620	3
0	31930	4625	1
0	31941	4626	1
0	31984	4631	1
0	32034	4640	1
0	32044	4641	1
0	32075	4648	1
0	32085	4649	1
0	32140	4656	1
0	32150	4657	2
0	32197	4663	1
0	32214	4665	1
0	32238	4668	1
0	32258	4670	1
0	32321	4680	1
0	32353	4684	1
0	32381	4688	1
0	32391	4689	1
0	32437	4697	1
0	32444	4698	1
0	32470	4706	1
0	32492	4711	1
0	32541	4717	1
0	32552	4718	1
0	32589	4723	2
0	32681	4736	1
0	32701	4740	1
0	32724	4743	1
0	32746	4746	1
0	32776	4750	1
0	32786	4751	2
0	32798	4752	3
0	32809	4753	2
0	32827	4755	1
0	32853	4760	4
0	32881	4762	1
0	32892	4763	1
0	32912	4765	1
0	32958	4771	1
0	32989	4775	1
0	33000	4776	1
0	33023	4779	1
0	33077	4786	1
0	33142	4797	1
0	33162	4802	6
0	33169	4803	5
0	33179	4804	6
0	33191	4805	3
0	33203	4806	2
0	33212	4807	2
0	33218	4808	3
0	33224	4809	3
0	33256	4815	1
0	33293	4822	1
0	33331	4827	5
0	33358	4833	1
0	33371	4836	1
0	33426	4847	1
0	33433	4848	1
0	33464	4852	1
0	33497	4856	1
0	33520	4859	1
0	33562	4865	1
0	33569	4866	1
0	33585	4871	3
0	33596	4873	1
0	33655	4887	1
0	33666	4888	1
0	33678	4890	1
0	33734	4897	1
0	33814	4909	1
0	33841	4912	1
0	33853	4913	1
0	33864	4914	2
0	33892	4919	6
0	33899	4920	1
0	33909	4921	1
0	33934	4924	1
0	33944	4925	1
0	33952	4926	1
0	33959	4927	2
0	33965	4928	2
0	33972	4929	1
0	33979	4930	1
0	34003	4935	5
0	34012	4936	4
0	34043	4940	1
0	34066	4943	1
0	34107	4951	1
0	34132	4955	1
0	34150	4957	1
0	34156	4958	2
0	34166	4959	1
0	34181	4963	1
0	34197	4968	5
0	34235	4977	1
0	34268	4982	1
0	34289	4984	1
0	34306	4986	1
0	34340	4991	1
0	34351	4992	1
0	34358	4993	2
0	34364	4994	2
0	34403	4999	1
1	2618	401	1
1	2618	401	0
1	2623	402	1
1	2625	402	0
1	2645	406	1
1	2645	406	0
1	2661	408	1
1	2674	410	2
1	2680	411	1
1	2686	412	0
1	2691	413	1
1	2693	413	0
1	2709	417	1
1	2709	417	0
1	2720	419	1
1	2720	419	0
1	2725	420	1
1	2730	420	0
1	2776	426	1
1	2776	426	0
1	2785	427	1
1	2787	427	0
1	2805	429	1
1	2805	429	0
1	2822	431	1
1	2822	431	0
1	2829	432	1
1	2844	434	2
1	2859	436	1
1	2867	437	0
1	2876	439	1
1	2876	439	0
1	2877	439	1
1	2882	440	2
1	2883	440	3
1	2884	440	4
1	2886	440	3
1	2892	441	2
1	2897	442	3
1	2900	442	2
1	2911	443	1
1	2921	444	0
1	2935	447	1
1	2935	447	0
1	2983	456	1
1	2983	456	0
1	2984	456	1
1	2994	458	2
1	3002	460	3
1	3008	461	2
1	3009	461	3
1	3016	462	2
1	3023	463	3
1	3028	463	2
1	3038	464	1
1	3044	465	0
1	3069	470	1
1	3069	470	0
1	3115	476	1
1	3115	476	0
1	3133	478	1
1	3133	478	0
1	3174	486	1
1	3174	486	0
1	3195	488	1
1	3195	488	0
1	3255	497	1
1	3255	497	0
1	3265	498	1
1	3267	498	0
1	3294	502	1
1	3294	502	0
1	3299	503	1
1	3301	503	0
1	3317	507	1
1	3317	507	0
1	3365	513	1
1	3365	513	0
1	3366	513	1
1	3377	514	0
1	3386	515	1
1	3388	515	0
1	3424	522	1
1	3424	522	0
1	3425	522	1
1	3434	523	0
1	3454	526	1
1	3467	528	0
1	3476	530	1
1	3476	530	0
1	3490	532	1
1	3490	532	0
1	3491	532	1
1	3502	533	0
1	3572	542	1
1	3572	542	0
1	3623	549	1
1	3623	549	0
1	3624	549	1
1	3637	550	0
1	3676	555	1
1	3676	555	0
1	3696	557	1
1	3696	557	0
1	3723	560	1
1	3723	560	0
1	3732	561	1
1	3757	565	0
1	3772	570	1
1	3772	570	0
1	3781	572	1
1	3781	572	0
1	3789	573	1
1	3792	573	0
1	3809	576	1
1	3809	576	0
1	3825	579	1
1	3825	579	0
1	3852	585	1
1	3852	585	0
1	3857	586	1
1	3858	586	2
1	3861	586	1
1	3871	587	0
1	3884	589	1
1	3884	589	0
1	3885	589	1
1	3899	591	2
1	3912	594	1
1	3922	595	0
1	3985	604	1
1	3985	604	0
1	4007	608	1
1	4007	608	0
1	4008	608	1
1	4017	609	0
1	4041	612	1
1	4041	612	0
1	4070	616	1
1	4070	616	0
1	4088	618	1
1	4088	618	0
1	4099	619	1
1	4101	619	0
1	4133	623	1
1	4133	623	0
1	4149	626	1
1	4150	626	2
1	4156	628	1
1	4168	629	0
1	4185	631	1
1	4185	631	0
1	4186	631	1
1	4195	632	2
1	4196	632	3
1	4198	632	2
1	4207	633	1
1	4217	634	0
1	4267	642	1
1	4267	642	0
1	4282	644	1
1	4282	644	0
1	4290	645	1
1	4293	645	0
1	4302	646	1
1	4305	646	0
1	4323	648	1
1	4337	650	2
1	4343	651	1
1	4354	652	0
1	4363	653	1
1	4366	653	0
1	4390	656	1
1	4390	656	0
1	4391	656	1
1	4398	657	2
1	4400	657	1
1	4410	658	0
1	4417	659	1
1	4418	659	2
1	4423	659	1
1	4435	660	0
1	4442	661	1
1	4446	661	0
1	4453	662	1
1	4458	662	0
1	4465	663	1
1	4493	667	0
1	4512	671	1
1	4512	671	0
1	4527	673	1
1	4527	673	0
1	4537	674	1
1	4539	674	0
1	4557	676	1
1	4557	676	0
1	4575	678	1
1	4575	678	0
1	4589	680	1
1	4589	680	0
1	4599	681	1
1	4600	681	2
1	4602	681	1
1	4610	682	0
1	4675	691	1
1	4675	691	0
1	4684	692	1
1	4685	692	2
1	4705	695	3
1	4711	696	2
1	4718	697	1
1	4728	698	0
1	4758	703	1
1	4758	703	0
1	4766	704	1
1	4768	704	0
1	4782	706	1
1	4782	706	0
1	4789	707	1
1	4792	707	0
1	4799	708	1
1	4803	708	0
1	4808	709	1
1	4810	709	0
1	4821	712	1
1	4821	712	0
1	4822	712	1
1	4833	714	2
1	4853	716	3
1	4861	717	2
1	4874	718	1
1	4885	719	0
1	4915	723	1
1	4915	723	0
1	4983	736	1
1	4983	736	0
1	5010	739	1
1	5010	739	0
1	5036	742	1
1	5036	742	0
1	5045	743	1
1	5047	743	0
1	5060	746	1
1	5060	746	0
1	5097	752	1
1	5097	752	0
1	5141	762	1
1	5141	762	0
1	5157	765	1
1	5157	765	0
1	5173	767	1
1	5173	767	0
1	5216	777	1
1	5216	777	0
1	5217	777	1
1	5233	778	0
1	5331	791	1
1	5331	791	0
1	5358	794	1
1	5358	794	0
1	5397	799	1
1	5397	799	0
1	5435	804	1
1	5435	804	0
1	5453	806	1
1	5453	806	0
1	5454	806	1
1	5491	811	0
1	5506	813	1
1	5506	813	0
1	5527	817	1
1	5527	817	0
1	5528	817	1
1	5539	818	0
1	5586	826	1
1	5586	826	0
1	5595	827	1
1	5598	827	0
1	5618	830	1
1	5618	830	0
1	5640	835	1
1	5640	835	0
1	5656	838	1
1	5656	838	0
1	5679	842	1
1	5679	842	0
1	5709	846	1
1	5710	846	2
1	5711	846	3
1	5720	847	2
1	5729	848	1
1	5739	849	0
1	5744	850	1
1	5746	850	0
1	5751	851	1
1	5753	851	0
1	5775	857	1
1	5775	857	0
1	5798	862	1
1	5798	862	0
1	5799	862	1
1	5810	863	0
1	5861	870	1
1	5861	870	0
1	5885	873	1
1	5885	873	0
1	5897	876	1
1	5908	878	0
1	5940	882	1
1	5940	882	0
1	5949	883	1
1	5952	883	0
1	5961	884	1
1	5963	884	0
1	5970	885	1
1	5972	885	0
1	5985	889	1
1	5985	889	0
1	6013	894	1
1	6013	894	0
1	6042	900	1
1	6042	900	0
1	6047	901	1
1	6050	901	0
1	6067	903	1
1	6067	903	0
1	6088	906	1
1	6089	906	2
1	6098	908	1
1	6108	909	0
1	6115	910	1
1	6121	910	0
1	6128	911	1
1	6134	911	0
1	6157	914	1
1	6157	914	0
1	6174	916	1
1	6174	916	0
1	6195	918	1
1	6195	918	0
1	6212	920	1
1	6212	920	0
1	6213	920	1
1	6224	921	0
1	6247	923	1
1	6247	923	0
1	6269	926	1
1	6285	928	0
1	6327	935	1
1	6327	935	0
1	6385	942	1
1	6385	942	0
1	6395	943	1
1	6397	943	0
1	6480	956	1
1	6480	956	0
1	6481	956	1
1	6494	957	0
1	6533	962	1
1	6533	962	0
1	6534	962	1
1	6549	963	0
1	6558	964	1
1	6560	964	0
1	6645	978	1
1	6645	978	0
1	6653	979	1
1	6659	980	2
1	6660	980	3
1	6668	983	2
1	6669	983	3
1	6675	984	2
1	6680	985	3
1	6682	985	2
1	6687	986	3
1	6689	986	2
1	6695	987	1
1	6702	988	0
1	6715	990	1
1	6715	990	0
1	6726	993	1
1	6726	993	0
1	6740	995	1
1	6740	995	0
1	6754	996	1
1	6758	996	0
1	6786	1000	1
1	6794	1001	0
1	6912	1018	1
1	6912	1018	0
1	6921	1019	1
1	6923	1019	0
1	6956	1023	1
1	6956	1023	0
1	7019	1031	1
1	7019	1031	0
1	7030	1032	1
1	7032	1032	0
1	7041	1033	1
1	7044	1033	0
1	7104	1040	1
1	7104	1040	0
1	7133	1044	1
1	7133	1044	0
1	7142	1045	1
1	7144	1045	0
1	7153	1046	1
1	7180	1050	0
1	7181	1050	1
1	7188	1051	2
1	7190	1051	1
1	7196	1052	0
1	7211	1055	1
1	7211	1055	0
1	7212	1055	1
1	7222	1056	0
1	7239	1059	1
1	7239	1059	0
1	7258	1061	1
1	7258	1061	0
1	7285	1065	1
1	7285	1065	0
1	7295	1066	1
1	7296	1066	2
1	7297	1066	3
1	7299	1066	2
1	7309	1067	1
1	7316	1068	2
1	7333	1072	1
1	7338	1073	2
1	7339	1073	3
1	7340	1073	4
1	7342	1073	3
1	7349	1074	2
1	7359	1075	1
1	7366	1076	0
1	7393	1081	1
1	7393	1081	0
1	7420	1084	1
1	7420	1084	0
1	7439	1086	1
1	7439	1086	0
1	7465	1089	1
1	7465	1089	0
1	7475	1090	1
1	7478	1090	0
1	7500	1093	1
1	7518	1095	0
1	7587	1104	1
1	7587	1104	0
1	7637	1111	1
1	7637	1111	0
1	7669	1115	1
1	7669	1115	0
1	7679	1116	1
1	7680	1116	2
1	7683	1116	1
1	7693	1117	0
1	7733	1122	1
1	7733	1122	0
1	7752	1124	1
1	7752	1124	0
1	7773	1126	1
1	7773	1126	0
1	7799	1129	1
1	7799	1129	0
1	7903	1144	1
1	7903	1144	0
1	7923	1147	1
1	7923	1147	0
1	7940	1150	1
1	7940	1150	0
1	7941	1150	1
1	7950	1151	2
1	7951	1151	3
1	7953	1151	2
1	7964	1152	1
1	7974	1153	0
1	7985	1155	1
1	7985	1155	0
1	7986	1155	1
1	7992	1156	0
1	7997	1157	1
1	7999	1157	0
1	8012	1161	1
1	8012	1161	0
1	8020	1162	1
1	8021	1162	2
1	8044	1166	1
1	8045	1166	2
1	8055	1167	1
1	8064	1168	2
1	8067	1168	1
1	8076	1169	2
1	8081	1169	1
1	8091	1170	0
1	8126	1180	1
1	8126	1180	0
1	8137	1183	1
1	8137	1183	0
1	8156	1186	1
1	8156	1186	0
1	8163	1187	1
1	8165	1187	0
1	8177	1189	1
1	8177	1189	0
1	8201	1193	1
1	8208	1194	0
1	8226	1197	1
1	8226	1197	0
1	8235	1199	1
1	8235	1199	0
1	8275	1204	1
1	8275	1204	0
1	8308	1208	1
1	8308	1208	0
1	8318	1209	1
1	8319	1209	2
1	8322	1209	1
1	8331	1210	2
1	8334	1210	1
1	8344	1211	0
1	8361	1213	1
1	8361	1213	0
1	8376	1215	1
1	8376	1215	0
1	8386	1216	1
1	8408	1220	0
1	8413	1221	1
1	8415	1221	0
1	8450	1229	1
1	8450	1229	0
1	8498	1235	1
1	8498	1235	0
1	8507	1236	1
1	8511	1236	0
1	8520	1237	1
1	8522	1237	0
1	8540	1239	1
1	8540	1239	0
1	8551	1240	1
1	8554	1240	0
1	8579	1243	1
1	8579	1243	0
1	8635	1251	1
1	8635	1251	0
1	8666	1255	1
1	8675	1256	0
1	8738	1264	1
1	8738	1264	0
1	8755	1266	1
1	8755	1266	0
1	8774	1270	1
1	8774	1270	0
1	8775	1270	1
1	8781	1271	0
1	8792	1274	1
1	8792	1274	0
1	8846	1282	1
1	8846	1282	0
1	8847	1282	1
1	8860	1283	0
1	8884	1286	1
1	8884	1286	0
1	8894	1287	1
1	8899	1287	0
1	8952	1294	1
1	8952	1294	0
1	9067	1316	1
1	9067	1316	0
1	9076	1318	1
1	9076	1318	0
1	9093	1320	1
1	9093	1320	0
1	9115	1323	1
1	9115	1323	0
1	9130	1325	1
1	9130	1325	0
1	9150	1330	1
1	9150	1330	0
1	9178	1334	1
1	9178	1334	0
1	9183	1335	1
1	9185	1335	0
1	9196	1338	1
1	9196	1338	0
1	9234	1344	1
1	9234	1344	0
1	9283	1350	1
1	9283	1350	0
1	9401	1366	1
1	9401	1366	0
1	9411	1367	1
1	9415	1367	0
1	9432	1369	1
1	9432	1369	0