version 3
run Experimentos-10-20260514-09:20:55-3467
attr configname Experimentos
attr datetime 20260514-09:20:55
attr datetimef 20260514-092055
attr experiment Experimentos
attr inifile TwoQueues.ini
attr iterationvars "$p=0.6, $q=0.2, $Y=10, $m=2"
attr iterationvarsd p=0.6/q=0.2/Y=10/m=2
attr iterationvarsf p=0.6,q=0.2,Y=10,m=2-
attr measurement "$p=0.6, $q=0.2, $Y=10, $m=2"
attr network TwoQueues
attr processid 3467
attr repetition 10
attr replication #10
attr resultdir results
attr runnumber 10
attr seedset 10
itervar Y 10
itervar m 2
itervar p 0.6
itervar q 0.2
config description "Barrido completo de parámetros Proyecto 12"
config **.source1.p 0.6
config **.source1.q 0.2
config **.source2.p 0.6
config **.source2.q 0.2
config **.serverWithMaintenance.Y 10
config **.serverWithMaintenance.m 2
config network TwoQueues
config cpu-time-limit 5000s
config sim-time-limit 5000s
config warmup-period 400s
config repeat 20
config output-scalar-file results/Experimentos-p=0.6,q=0.2,Y=10,m=2--#10.sca
config output-vector-file results/Experimentos-p=0.6,q=0.2,Y=10,m=2--#10.vec
config **.vector-recording true

vector 0 TwoQueues.serverWithMaintenance residenceTime2:vector ETV
attr recordingmode vector
attr source delay2
attr title "Residence Time Class 2"
vector 1 TwoQueues.queue2 queueLengthStats:vector ETV
attr recordingmode vector
attr source qlen
attr title "Average Queue Length"
vector 2 TwoQueues.queue1 queueLengthStats:vector ETV
attr recordingmode vector
attr source qlen
attr title "Average Queue Length"
vector 3 TwoQueues.server residenceTime1:vector ETV
attr recordingmode vector
attr source delay1
attr title "Residence Time Class 1"
vector 4 TwoQueues.server throughputStats1:vector ETV
attr recordingmode vector
attr source throughput1
attr title "Throughput Class 1"
0	2201	402	1
0	2213	403	2
0	2223	404	2
0	2238	407	3
0	2263	411	1
0	2291	416	1
0	2322	422	1
0	2363	427	1
0	2433	436	1
0	2451	438	1
0	2504	446	1
0	2513	447	2
0	2523	448	1
0	2583	457	1
0	2607	460	1
0	2645	465	1
0	2652	466	1
0	2697	472	1
0	2715	474	1
0	2727	475	1
0	2739	476	1
0	2759	478	1
0	2770	479	1
0	2826	495	1
0	2843	500	1
0	2866	505	1
0	2917	512	1
0	2936	515	1
0	2945	517	1
0	2952	518	1
0	2963	521	1
0	3020	528	1
0	3075	536	1
0	3158	552	1
0	3188	557	1
0	3198	558	1
0	3243	567	1
0	3256	568	1
0	3274	571	1
0	3282	572	1
0	3288	573	2
0	3338	581	1
0	3350	582	2
0	3373	585	4
0	3421	594	1
0	3495	609	1
0	3533	614	1
0	3575	620	1
0	3596	624	1
0	3622	627	1
0	3651	630	1
0	3671	632	1
0	3705	636	1
0	3766	644	1
0	3778	645	1
0	3798	647	1
0	3811	648	2
0	3834	651	1
0	3858	654	1
0	3979	680	1
0	4031	690	1
0	4043	691	1
0	4059	693	1
0	4084	696	1
0	4127	702	1
0	4161	709	1
0	4170	710	2
0	4181	711	1
0	4192	712	1
0	4204	714	1
0	4210	715	2
0	4221	717	1
0	4227	718	2
0	4238	721	5
0	4256	725	1
0	4283	729	1
0	4316	734	1
0	4326	735	1
0	4339	739	1
0	4369	743	1
0	4396	746	1
0	4407	747	1
0	4433	750	1
0	4493	758	1
0	4504	759	1
0	4515	760	1
0	4535	764	1
0	4558	768	1
0	4583	773	1
0	4604	777	1
0	4620	779	1
0	4641	783	1
0	4680	789	1
0	4699	792	3
0	4705	793	3
0	4711	794	3
0	4721	795	1
0	4765	801	1
0	4785	803	1
0	4858	813	1
0	4884	816	1
0	4914	820	1
0	4920	821	2
0	4950	826	1
0	4962	827	1
0	4999	833	1
0	5045	839	1
0	5110	847	1
0	5124	848	1
0	5141	850	1
0	5172	854	1
0	5232	864	1
0	5241	866	1
0	5265	869	2
0	5275	870	1
0	5339	882	1
0	5352	886	1
0	5391	893	1
0	5408	895	1
0	5508	914	1
0	5520	915	2
0	5537	917	1
0	5568	921	1
0	5593	924	1
0	5626	930	1
0	5664	939	1
0	5679	941	1
0	5686	942	2
0	5695	943	2
0	5742	952	1
0	5761	955	1
0	5770	957	1
0	5783	960	1
0	5803	963	2
0	5881	974	1
0	5930	980	1
0	5976	985	1
0	6012	990	1
0	6035	992	1
0	6045	993	2
0	6114	1003	1
0	6154	1008	1
0	6211	1016	1
0	6231	1019	2
0	6247	1022	1
0	6265	1024	1
0	6279	1025	1
0	6296	1027	1
0	6334	1032	1
0	6348	1034	1
0	6391	1045	1
0	6402	1046	2
0	6422	1048	1
0	6459	1055	1
0	6501	1060	1
0	6599	1073	1
0	6619	1075	1
0	6636	1077	1
0	6687	1084	1
0	6699	1085	1
0	6725	1088	1
0	6736	1089	1
0	6776	1096	1
0	6803	1100	1
0	6824	1102	1
0	6908	1114	1
0	6920	1116	1
0	6930	1117	2
0	6936	1118	2
0	6952	1120	1
0	6997	1126	1
0	7042	1132	1
0	7072	1137	1
0	7105	1141	1
0	7132	1144	1
0	7165	1148	1
0	7242	1159	1
0	7282	1165	1
0	7289	1166	2
0	7295	1167	2
0	7309	1169	1
0	7345	1173	1
0	7432	1185	1
0	7477	1191	1
0	7538	1202	1
0	7621	1217	1
0	7671	1227	1
0	7678	1228	1
0	7712	1235	1
0	7732	1238	1
0	7897	1267	1
0	7903	1268	2
0	7910	1269	1
0	7934	1272	3
0	7978	1280	1
0	7990	1281	1
0	8001	1282	1
0	8056	1290	1
0	8079	1293	1
0	8111	1299	1
0	8131	1303	1
0	8175	1309	1
0	8192	1311	1
0	8222	1315	1
0	8238	1317	1
0	8254	1320	1
0	8264	1321	1
0	8286	1326	1
0	8305	1328	1
0	8364	1335	1
0	8390	1338	1
0	8419	1342	1
0	8442	1345	1
0	8461	1348	3
0	8475	1350	1
0	8484	1352	1
0	8491	1353	1
0	8542	1363	1
0	8552	1364	2
0	8560	1365	2
0	8567	1366	1
0	8602	1375	1
0	8630	1380	1
0	8652	1383	3
0	8780	1412	1
0	8801	1419	1
0	8813	1420	1
0	8852	1428	1
0	8906	1441	1
0	8918	1442	2
0	9006	1456	1
0	9033	1460	1
0	9067	1465	1
0	9096	1468	4
0	9106	1469	3
0	9116	1470	4
0	9132	1471	1
0	9152	1473	1
0	9177	1476	1
0	9234	1483	1
0	9251	1485	1
0	9302	1492	1
0	9325	1495	1
0	9362	1499	1
0	9374	1500	1
0	9398	1503	1
0	9422	1506	1
0	9457	1511	1
0	9470	1512	1
0	9479	1513	2
0	9493	1516	1
0	9505	1517	1
0	9516	1518	1
0	9536	1521	1
0	9570	1527	1
0	9584	1530	1
0	9598	1532	1
0	9697	1552	1
0	9730	1556	1
0	9768	1562	1
0	9784	1565	1
0	9814	1569	1
0	9826	1570	1
0	9898	1581	1
0	9911	1582	1
0	9929	1584	1
0	10031	1600	1
0	10042	1601	2
0	10062	1603	1
0	10092	1607	1
0	10101	1608	2
0	10116	1612	1
0	10126	1613	1
0	10148	1616	3
0	10190	1626	1
0	10218	1631	1
0	10236	1635	1
0	10246	1637	1
0	10252	1638	2
0	10262	1639	1
0	10271	1640	1
0	10294	1644	1
0	10321	1647	1
0	10351	1650	2
0	10375	1653	1
0	10387	1654	1
0	10405	1656	1
0	10419	1657	1
0	10430	1658	1
0	10500	1667	1
0	10514	1668	1
0	10544	1672	1
0	10594	1679	1
0	10622	1683	1
0	10710	1701	1
0	10717	1702	1
0	10728	1704	1
0	10740	1705	1
0	10857	1725	1
0	10882	1728	1
0	10891	1729	2
0	10912	1734	1
0	10918	1735	2
0	10930	1738	2
0	10967	1745	1
0	10998	1750	1
0	11016	1752	1
0	11122	1769	1
0	11168	1776	1
0	11205	1783	1
0	11221	1786	1
0	11231	1787	1
0	11240	1788	1
0	11260	1792	1
0	11303	1799	1
0	11323	1802	1
0	11340	1804	1
0	11364	1807	1
0	11374	1808	1
0	11443	1820	1
0	11523	1838	1
0	11537	1839	1
0	11590	1846	1
0	11641	1853	1
0	11663	1855	1
0	11674	1856	2
0	11686	1857	2
0	11711	1860	1
0	11722	1861	2
0	11753	1866	1
0	11766	1869	1
0	11779	1870	1
0	11828	1880	1
0	11879	1887	1
0	11919	1895	1
0	11945	1899	1
0	11954	1901	1
0	11970	1903	1
0	12099	1929	1
0	12130	1934	1
0	12137	1935	1
0	12183	1948	1
0	12235	1959	1
0	12256	1962	3
0	12270	1963	3
0	12280	1964	3
0	12289	1965	3
0	12299	1966	4
0	12329	1973	1
0	12388	1986	1
0	12406	1989	1
0	12463	2001	1
0	12509	2007	1
0	12524	2010	2
0	12549	2013	1
0	12575	2016	1
0	12586	2017	1
0	12671	2032	1
0	12779	2048	1
0	12790	2049	2
0	12841	2061	1
0	12848	2062	1
0	12859	2065	1
0	12872	2068	2
0	12878	2069	2
0	12948	2080	1
0	12960	2081	1
0	13054	2100	1
0	13090	2104	1
0	13188	2118	1
0	13269	2130	1
0	13279	2131	2
0	13303	2134	1
0	13330	2137	1
0	13342	2138	1
0	13373	2142	1
0	13393	2145	1
0	13495	2166	1
0	13560	2181	1
0	13576	2185	1
0	13607	2192	1
0	13623	2196	1
0	13631	2197	1
0	13644	2200	4
0	13660	2204	1
0	13681	2207	1
0	13704	2211	1
0	13722	2215	1
0	13731	2217	1
0	13750	2222	1
0	13764	2223	2
0	13798	2227	1
0	13808	2228	2
0	13834	2231	2
0	13863	2235	1
0	13886	2239	1
0	13933	2250	1
0	13958	2255	1
0	13986	2259	1
0	14020	2264	1
0	14052	2268	1
0	14128	2282	1
0	14134	2283	2
0	14155	2286	2
0	14183	2292	1
0	14194	2293	1
0	14222	2298	1
0	14235	2299	1
0	14274	2305	1
0	14346	2318	1
0	14352	2319	2
0	14363	2320	1
0	14380	2322	1
0	14407	2325	2
0	14451	2336	1
0	14473	2339	1
0	14482	2341	1
0	14531	2349	1
0	14540	2350	2
0	14549	2352	1
0	14571	2360	1
0	14580	2361	2
0	14641	2371	1
0	14709	2380	1
0	14727	2382	1
0	14755	2386	1
0	14914	2413	1
0	14931	2415	1
0	14997	2428	1
0	15013	2431	1
0	15046	2435	1
0	15060	2436	1
0	15085	2439	1
0	15117	2443	1
0	15129	2444	1
0	15167	2449	1
0	15177	2450	1
0	15225	2458	1
0	15244	2460	1
0	15261	2462	1
0	15273	2463	1
0	15300	2469	1
0	15351	2477	1
0	15406	2489	1
0	15438	2493	1
0	15465	2496	1
0	15489	2499	1
0	15505	2501	1
0	15536	2514	1
0	15548	2516	1
0	15557	2517	2
0	15596	2524	1
0	15639	2531	1
0	15673	2537	1
0	15701	2541	1
0	15732	2548	1
0	15753	2551	1
0	15763	2552	1
0	15775	2554	1
0	15800	2557	1
0	15871	2574	1
0	15883	2575	2
0	15978	2593	1
0	16010	2596	4
0	16020	2597	4
0	16031	2598	3
0	16043	2599	1
0	16091	2607	1
0	16123	2614	1
0	16134	2615	2
0	16145	2616	2
0	16163	2619	1
0	16174	2620	1
0	16200	2623	1
0	16222	2627	1
0	16246	2632	1
0	16256	2633	2
0	16264	2634	2
0	16294	2639	1
0	16354	2649	1
0	16387	2654	1
0	16417	2658	1
0	16431	2659	2
0	16487	2666	1
0	16499	2667	1
0	16510	2668	2
0	16570	2676	1
0	16600	2680	1
0	16618	2683	1
0	16667	2692	1
0	16684	2694	1
0	16739	2701	1
0	16750	2702	1
0	16808	2710	1
0	16842	2717	1
0	16855	2719	1
0	16865	2720	2
0	16980	2737	1
0	16992	2738	1
0	17054	2752	1
0	17137	2766	1
0	17151	2767	1
0	17163	2768	1
0	17228	2777	1
0	17242	2779	1
0	17262	2782	1
0	17294	2786	1
0	17372	2797	1
0	17389	2799	1
0	17417	2804	1
0	17460	2814	1
0	17487	2817	1
0	17723	2856	1
0	17770	2865	1
0	17852	2876	1
0	17864	2877	1
0	17917	2884	1
0	17949	2888	1
0	17968	2890	1
0	18012	2896	1
0	18106	2913	1
0	18156	2923	1
0	18197	2935	1
0	18224	2939	1
0	18276	2954	1
0	18310	2958	1
0	18326	2960	1
0	18342	2962	1
0	18355	2963	1
0	18381	2966	1
0	18413	2970	1
0	18432	2972	1
0	18458	2975	1
0	18481	2978	4
0	18597	2997	1
0	18604	2998	2
0	18611	2999	2
0	18621	3000	2
0	18630	3001	2
0	18637	3002	2
0	18643	3003	2
0	18683	3009	1
0	18692	3010	2
0	18732	3017	1
0	18746	3019	1
0	18851	3035	1
0	18863	3036	1
0	18874	3037	2
0	18886	3039	1
0	18932	3046	1
0	18987	3057	1
0	19009	3061	1
0	19020	3062	1
0	19039	3065	1
0	19052	3069	1
0	19077	3073	1
0	19107	3077	1
0	19168	3085	1
0	19180	3086	1
0	19202	3089	1
0	19220	3093	1
0	19229	3095	1
0	19242	3098	1
0	19270	3104	1
0	19289	3108	1
0	19321	3113	1
0	19361	3118	1
0	19380	3120	1
0	19412	3124	1
0	19430	3126	1
0	19450	3130	1
0	19468	3134	1
0	19503	3139	1
0	19515	3142	3
0	19522	3143	1
0	19571	3150	1
0	19595	3153	1
0	19624	3158	1
0	19698	3171	1
0	19709	3174	1
0	19752	3181	1
0	19806	3189	1
0	19827	3193	1
0	19852	3196	2
0	19910	3203	1
0	19967	3211	1
0	20008	3216	1
0	20019	3217	1
0	20119	3230	1
0	20144	3233	1
0	20195	3240	1
0	20207	3241	1
0	20237	3244	1
0	20261	3247	3
0	20308	3254	1
0	20318	3255	1
0	20330	3256	1
0	20340	3257	2
0	20358	3260	1
0	20395	3266	1
0	20406	3267	1
0	20445	3272	1
0	20473	3276	1
0	20506	3280	1
0	20535	3285	1
0	20541	3286	2
0	20612	3300	1
0	20621	3301	2
0	20664	3309	1
0	20710	3317	1
0	20720	3318	1
0	20739	3325	1
0	20789	3331	1
0	20849	3339	1
0	20957	3355	1
0	21005	3365	1
0	21016	3367	1
0	21030	3369	1
0	21118	3383	1
0	21147	3386	1
0	21168	3388	1
0	21178	3389	2
0	21224	3397	1
0	21280	3408	1
0	21327	3418	1
0	21369	3430	1
0	21389	3433	1
0	21443	3447	1
0	21534	3463	1
0	21546	3465	1
0	21563	3467	1
0	21581	3469	1
0	21625	3477	1
0	21640	3480	2
0	21729	3497	1
0	21775	3505	1
0	21793	3507	1
0	21895	3523	1
0	21939	3532	1
0	21970	3539	1
0	22002	3544	1
0	22014	3545	1
0	22075	3554	1
0	22110	3561	1
0	22127	3563	1
0	22145	3565	1
0	22157	3566	1
0	22183	3570	1
0	22214	3578	1
0	22225	3581	1
0	22232	3582	1
0	22261	3588	1
0	22295	3595	1
0	22414	3613	1
0	22487	3623	1
0	22580	3636	1
0	22589	3637	2
0	22598	3638	3
0	22632	3643	1
0	22684	3648	1
0	22704	3650	1
0	22721	3652	1
0	22781	3660	1
0	22805	3663	3
0	22817	3664	1
0	22827	3665	2
0	22845	3667	1
0	22923	3678	1
0	22994	3688	1
0	23019	3691	1
0	23030	3692	1
0	23060	3696	1
0	23071	3697	1
0	23099	3704	1
0	23131	3710	1
0	23141	3711	1
0	23163	3714	1
0	23235	3727	1
0	23256	3730	1
0	23273	3732	1
0	23285	3733	1
0	23297	3734	1
0	23387	3753	1
0	23399	3756	1
0	23410	3758	1
0	23474	3769	1
0	23521	3776	1
0	23576	3785	1
0	23600	3789	1
0	23623	3793	1
0	23634	3796	1
0	23647	3799	1
0	23717	3808	1
0	23767	3817	1
0	23777	3818	1
0	23797	3821	1
0	23810	3822	1
0	23945	3846	1
0	24052	3862	1
0	24100	3871	1
0	24121	3874	1
0	24147	3880	1
0	24159	3881	2
0	24185	3884	2
0	24196	3885	2
0	24282	3899	1
0	24291	3901	1
0	24325	3907	1
0	24335	3908	2
0	24345	3909	3
0	24359	3910	1
0	24388	3913	1
0	24398	3914	2
0	24425	3917	3
0	24454	3921	1
0	24464	3922	1
0	24474	3923	1
0	24562	3945	1
0	24643	3959	1
0	24652	3961	1
0	24659	3962	1
0	24666	3963	1
0	24676	3964	1
0	24716	3975	1
0	24746	3979	1
0	24756	3980	1
0	24771	3984	1
0	24815	3993	1
0	24827	3994	1
0	24838	3995	1
0	24874	4000	1
0	24929	4009	1
0	24945	4012	1
0	24967	4015	2
0	24984	4019	1
0	25034	4027	1
0	25061	4032	1
0	25140	4044	1
0	25193	4053	1
0	25252	4064	1
0	25282	4070	1
0	25303	4073	1
0	25316	4074	1
0	25340	4077	3
0	25378	4083	1
0	25399	4085	1
0	25409	4086	2
0	25422	4087	1
0	25433	4088	1
0	25445	4089	1
0	25456	4090	2
0	25481	4093	1
0	25495	4094	1
0	25520	4097	1
0	25543	4101	1
0	25560	4103	1
0	25574	4105	1
0	25640	4118	1
0	25695	4131	1
0	25705	4132	2
0	25721	4135	1
0	25739	4138	1
0	25779	4145	1
0	25798	4148	2
0	25825	4152	1
0	25834	4153	2
0	25852	4155	1
0	25864	4157	1
0	25878	4159	1
0	25933	4169	1
0	25944	4172	1
0	25961	4178	1
0	26016	4187	1
0	26039	4190	2
0	26087	4197	1
0	26099	4199	1
0	26122	4203	1
0	26129	4204	1
0	26136	4205	1
0	26175	4211	1
0	26261	4224	1
0	26327	4238	1
0	26338	4239	2
0	26455	4264	1
0	26512	4275	1
0	26547	4282	1
0	26558	4283	1
0	26592	4287	1
0	26644	4294	1
0	26723	4308	1
0	26733	4310	1
0	26739	4311	2
0	26749	4313	1
0	26763	4316	4
0	26786	4319	1
0	26795	4321	1
0	26838	4330	1
0	26881	4339	1
0	26889	4340	1
0	26895	4341	2
0	26943	4347	1
0	26954	4348	1
0	26998	4355	1
0	27028	4362	1
0	27071	4368	1
0	27077	4369	2
0	27084	4370	1
0	27122	4378	1
0	27142	4383	1
0	27164	4386	1
0	27173	4387	2
0	27193	4391	1
0	27226	4396	1
0	27246	4399	2
0	27287	4405	1
0	27301	4407	1
0	27381	4423	1
0	27392	4426	1
0	27399	4427	1
0	27406	4428	1
0	27439	4435	1
0	27557	4456	1
0	27569	4458	1
0	27652	4472	1
0	27711	4480	1
0	27722	4481	1
0	27733	4482	1
0	27780	4491	1
0	27822	4496	1
0	27871	4502	1
0	27996	4525	1
0	28003	4526	1
0	28013	4527	1
0	28042	4530	3
0	28052	4531	3
0	28061	4532	4
0	28074	4536	1
0	28191	4559	1
0	28197	4560	2
0	28204	4561	1
0	28245	4568	1
0	28255	4569	1
0	28280	4574	1
0	28299	4578	1
0	28324	4581	1
0	28351	4584	1
0	28408	4595	1
0	28466	4604	1
0	28517	4611	1
0	28527	4612	1
0	28538	4615	1
0	28548	4616	1
0	28570	4621	1
0	28638	4633	1
0	28688	4642	1
0	28705	4644	1
0	28726	4646	1
0	28746	4648	1
0	28800	4658	1
0	28825	4663	1
0	28834	4665	1
0	28855	4668	1
0	28867	4670	1
0	28884	4673	4
0	28895	4674	4
0	28905	4675	2
0	28913	4676	3
0	28920	4677	3
0	28927	4678	2
0	28937	4679	2
0	28971	4683	1
0	29011	4688	1
0	29087	4705	1
0	29119	4709	1
0	29146	4712	1
0	29262	4729	1
0	29271	4730	2
0	29304	4736	1
0	29315	4737	1
0	29377	4745	1
0	29389	4746	1
0	29418	4749	1
0	29441	4752	1
0	29531	4767	1
0	29620	4780	1
0	29680	4788	1
0	29716	4797	1
0	29827	4812	1
0	29853	4815	1
0	29866	4816	1
0	29899	4820	1
0	30006	4837	1
0	30070	4847	1
0	30103	4851	1
0	30159	4863	1
0	30205	4871	1
0	30247	4878	1
0	30292	4889	1
0	30299	4890	2
0	30305	4891	2
0	30315	4892	1
0	30324	4893	1
0	30395	4906	1
0	30511	4923	1
0	30517	4924	2
0	30527	4925	1
0	30696	4951	1
0	30732	4959	1
0	30746	4961	1
0	30764	4964	1
0	30783	4966	1
0	30795	4968	1
0	30808	4969	1
0	30835	4972	2
0	30847	4973	2
0	30857	4974	3
0	30870	4975	1
0	30889	4977	1
0	30919	4981	1
0	30940	4984	1
0	30959	4987	1
0	31009	4995	1
0	31026	4997	1
0	31041	5000	3
1	2192	401	1
1	2192	401	0
1	2193	401	1
1	2203	402	2
1	2206	402	1
1	2216	403	0
1	2225	404	1
1	2234	406	0
1	2257	410	1
1	2257	410	0
1	2285	415	1
1	2285	415	0
1	2314	421	1
1	2314	421	0
1	2354	426	1
1	2354	426	0
1	2426	435	1
1	2426	435	0
1	2443	437	1
1	2443	437	0
1	2495	445	1
1	2495	445	0
1	2496	445	1
1	2507	446	0
1	2514	447	1
1	2517	447	0
1	2576	456	1
1	2576	456	0
1	2599	459	1
1	2599	459	0
1	2639	464	1
1	2639	464	0
1	2646	465	1
1	2648	465	0
1	2688	471	1
1	2688	471	0
1	2707	473	1
1	2707	473	0
1	2717	474	1
1	2720	474	0
1	2729	475	1
1	2732	475	0
1	2750	477	1
1	2750	477	0
1	2761	478	1
1	2763	478	0
1	2822	494	1
1	2822	494	0
1	2837	499	1
1	2837	499	0
1	2857	504	1
1	2857	504	0
1	2910	511	1
1	2910	511	0
1	2932	514	1
1	2932	514	0
1	2941	516	1
1	2941	516	0
1	2946	517	1
1	2948	517	0
1	2959	520	1
1	2959	520	0
1	3012	527	1
1	3012	527	0
1	3068	535	1
1	3068	535	0
1	3150	551	1
1	3150	551	0
1	3180	556	1
1	3180	556	0
1	3190	557	1
1	3192	557	0
1	3235	566	1
1	3235	566	0
1	3245	567	1
1	3249	567	0
1	3270	570	1
1	3270	570	0
1	3275	571	1
1	3276	571	2
1	3278	571	1
1	3284	572	0
1	3328	580	1
1	3328	580	0
1	3329	580	1
1	3340	581	2
1	3343	581	1
1	3367	584	0
1	3415	593	1
1	3415	593	0
1	3487	608	1
1	3487	608	0
1	3526	613	1
1	3526	613	0
1	3568	619	1
1	3568	619	0
1	3590	623	1
1	3590	623	0
1	3611	626	1
1	3611	626	0
1	3644	629	1
1	3644	629	0
1	3663	631	1
1	3663	631	0
1	3697	635	1
1	3697	635	0
1	3759	643	1
1	3759	643	0
1	3768	644	1
1	3771	644	0
1	3790	646	1
1	3790	646	0
1	3791	646	1
1	3804	647	0
1	3827	650	1
1	3827	650	0
1	3851	653	1
1	3851	653	0
1	3975	679	1
1	3975	679	0
1	4024	689	1
1	4024	689	0
1	4033	690	1
1	4036	690	0
1	4051	692	1
1	4051	692	0
1	4076	695	1
1	4076	695	0
1	4118	701	1
1	4118	701	0
1	4154	708	1
1	4154	708	0
1	4155	708	1
1	4164	709	0
1	4171	710	1
1	4175	710	0
1	4182	711	1
1	4186	711	0
1	4199	713	1
1	4199	713	0
1	4200	713	1
1	4206	714	0
1	4215	716	1
1	4215	716	0
1	4216	716	1
1	4217	716	2
1	4223	717	1
1	4234	720	0
1	4252	724	1
1	4252	724	0
1	4275	728	1
1	4275	728	0
1	4310	733	1
1	4310	733	0
1	4318	734	1
1	4320	734	0
1	4335	738	1
1	4335	738	0
1	4359	742	1
1	4359	742	0
1	4389	745	1
1	4389	745	0
1	4398	746	1
1	4400	746	0
1	4426	749	1
1	4426	749	0
1	4486	757	1
1	4486	757	0
1	4495	758	1
1	4497	758	0
1	4506	759	1
1	4508	759	0
1	4531	763	1
1	4531	763	0
1	4552	767	1
1	4552	767	0
1	4579	772	1
1	4579	772	0
1	4597	776	1
1	4597	776	0
1	4614	778	1
1	4614	778	0
1	4632	782	1
1	4632	782	0
1	4676	788	1
1	4676	788	0
1	4681	789	1
1	4685	790	2
1	4692	791	1
1	4693	791	2
1	4701	792	1
1	4707	793	0
1	4712	794	1
1	4715	794	0
1	4757	800	1
1	4757	800	0
1	4777	802	1
1	4777	802	0
1	4851	812	1
1	4851	812	0
1	4877	815	1
1	4877	815	0
1	4907	819	1
1	4907	819	0
1	4908	819	1
1	4916	820	0
1	4941	825	1
1	4941	825	0
1	4952	826	1
1	4955	826	0
1	4991	832	1
1	4991	832	0
1	5038	838	1
1	5038	838	0
1	5102	846	1
1	5102	846	0
1	5112	847	1
1	5117	847	0
1	5134	849	1
1	5134	849	0
1	5164	853	1
1	5164	853	0
1	5228	863	1
1	5228	863	0
1	5237	865	1
1	5237	865	0
1	5250	867	1
1	5258	868	0
1	5267	869	1
1	5269	869	0
1	5335	881	1
1	5335	881	0
1	5348	885	1
1	5348	885	0
1	5385	892	1
1	5385	892	0
1	5401	894	1
1	5401	894	0
1	5500	913	1
1	5500	913	0
1	5501	913	1
1	5513	914	0
1	5530	916	1
1	5530	916	0
1	5561	920	1
1	5561	920	0
1	5586	923	1
1	5586	923	0
1	5620	929	1
1	5620	929	0
1	5658	938	1
1	5658	938	0
1	5672	940	1
1	5672	940	0
1	5673	940	1
1	5680	941	2
1	5682	941	1
1	5689	942	0
1	5736	951	1
1	5736	951	0
1	5757	954	1
1	5757	954	0
1	5766	956	1
1	5766	956	0
1	5777	959	1
1	5777	959	0
1	5793	961	1
1	5799	962	0
1	5874	973	1
1	5874	973	0
1	5922	979	1
1	5922	979	0
1	5968	984	1
1	5968	984	0
1	6005	989	1
1	6005	989	0
1	6022	991	1
1	6022	991	0
1	6023	991	1
1	6038	992	0
1	6107	1002	1
1	6107	1002	0
1	6143	1007	1
1	6143	1007	0
1	6204	1015	1
1	6204	1015	0
1	6218	1017	1
1	6225	1018	0
1	6243	1021	1
1	6243	1021	0
1	6258	1023	1
1	6258	1023	0
1	6267	1024	1
1	6272	1024	0
1	6289	1026	1
1	6289	1026	0
1	6326	1031	1
1	6326	1031	0
1	6342	1033	1
1	6342	1033	0
1	6384	1044	1
1	6384	1044	0
1	6385	1044	1
1	6395	1045	0
1	6413	1047	1
1	6413	1047	0
1	6453	1054	1
1	6453	1054	0
1	6492	1059	1
1	6492	1059	0
1	6589	1072	1
1	6589	1072	0
1	6610	1074	1
1	6610	1074	0
1	6629	1076	1
1	6629	1076	0
1	6679	1083	1
1	6679	1083	0
1	6689	1084	1
1	6692	1084	0
1	6716	1087	1
1	6716	1087	0
1	6727	1088	1
1	6729	1088	0
1	6770	1095	1
1	6770	1095	0
1	6796	1099	1
1	6796	1099	0
1	6815	1101	1
1	6815	1101	0
1	6902	1113	1
1	6902	1113	0
1	6913	1115	1
1	6913	1115	0
1	6914	1115	1
1	6922	1116	2
1	6924	1116	1
1	6932	1117	0
1	6941	1119	1
1	6941	1119	0
1	6990	1125	1
1	6990	1125	0
1	7033	1131	1
1	7033	1131	0
1	7065	1136	1
1	7065	1136	0
1	7098	1140	1
1	7098	1140	0
1	7125	1143	1
1	7125	1143	0
1	7158	1147	1
1	7158	1147	0
1	7234	1158	1
1	7234	1158	0
1	7275	1164	1
1	7275	1164	0
1	7276	1164	1
1	7283	1165	2
1	7285	1165	1
1	7291	1166	0
1	7303	1168	1
1	7303	1168	0
1	7338	1172	1
1	7338	1172	0
1	7424	1184	1
1	7424	1184	0
1	7470	1190	1
1	7470	1190	0
1	7532	1201	1
1	7532	1201	0
1	7615	1216	1
1	7615	1216	0
1	7665	1226	1
1	7665	1226	0
1	7672	1227	1
1	7674	1227	0
1	7706	1234	1
1	7706	1234	0
1	7724	1237	1
1	7724	1237	0
1	7892	1266	1
1	7892	1266	0
1	7893	1266	1
1	7899	1267	0
1	7904	1268	1
1	7906	1268	0
1	7911	1269	1
1	7926	1271	0
1	7969	1279	1
1	7969	1279	0
1	7980	1280	1
1	7983	1280	0
1	7992	1281	1
1	7994	1281	0
1	8049	1289	1
1	8049	1289	0
1	8073	1292	1
1	8073	1292	0
1	8105	1298	1
1	8105	1298	0
1	8124	1302	1
1	8124	1302	0
1	8168	1308	1
1	8168	1308	0
1	8185	1310	1
1	8185	1310	0
1	8213	1314	1
1	8213	1314	0
1	8232	1316	1
1	8232	1316	0
1	8248	1319	1
1	8248	1319	0
1	8255	1320	1
1	8258	1320	0
1	8282	1325	1
1	8282	1325	0
1	8294	1327	1
1	8294	1327	0
1	8357	1334	1
1	8357	1334	0
1	8381	1337	1
1	8381	1337	0
1	8412	1341	1
1	8412	1341	0
1	8435	1344	1
1	8435	1344	0
1	8444	1345	1
1	8457	1347	0
1	8469	1349	1
1	8469	1349	0
1	8480	1351	1
1	8480	1351	0
1	8485	1352	1
1	8487	1352	0
1	8535	1362	1
1	8535	1362	0
1	8536	1362	1
1	8543	1363	2
1	8546	1363	1
1	8556	1364	0
1	8561	1365	1
1	8563	1365	0
1	8596	1374	1
1	8596	1374	0
1	8626	1379	1
1	8626	1379	0
1	8631	1380	1
1	8646	1382	0
1	8774	1411	1
1	8774	1411	0
1	8795	1418	1
1	8795	1418	0
1	8803	1419	1
1	8806	1419	0
1	8848	1427	1
1	8848	1427	0
1	8897	1440	1
1	8897	1440	0
1	8898	1440	1
1	8911	1441	0
1	8998	1455	1
1	8998	1455	0
1	9025	1459	1
1	9025	1459	0
1	9057	1464	1
1	9057	1464	0
1	9058	1464	1
1	9076	1466	2
1	9077	1466	3
1	9085	1467	2
1	9099	1468	1
1	9109	1469	0
1	9118	1470	1
1	9125	1470	0
1	9143	1472	1
1	9143	1472	0
1	9169	1475	1
1	9169	1475	0
1	9225	1482	1
1	9225	1482	0
1	9244	1484	1
1	9244	1484	0
1	9295	1491	1
1	9295	1491	0
1	9318	1494	1
1	9318	1494	0
1	9351	1498	1
1	9351	1498	0
1	9364	1499	1
1	9367	1499	0
1	9391	1502	1
1	9391	1502	0
1	9415	1505	1
1	9415	1505	0
1	9449	1510	1
1	9449	1510	0
1	9459	1511	1
1	9460	1511	2
1	9463	1511	1
1	9473	1512	0
1	9486	1515	1
1	9486	1515	0
1	9495	1516	1
1	9498	1516	0
1	9507	1517	1
1	9509	1517	0
1	9532	1520	1
1	9532	1520	0
1	9563	1526	1
1	9563	1526	0
1	9580	1529	1
1	9580	1529	0
1	9592	1531	1
1	9592	1531	0
1	9690	1551	1
1	9690	1551	0
1	9723	1555	1
1	9723	1555	0
1	9764	1561	1
1	9764	1561	0
1	9780	1564	1
1	9780	1564	0
1	9806	1568	1
1	9806	1568	0
1	9816	1569	1
1	9819	1569	0
1	9890	1580	1
1	9890	1580	0
1	9900	1581	1
1	9904	1581	0
1	9921	1583	1
1	9921	1583	0
1	10021	1599	1
1	10021	1599	0
1	10022	1599	1
1	10035	1600	0
1	10052	1602	1
1	10052	1602	0
1	10084	1606	1
1	10084	1606	0
1	10085	1606	1
1	10095	1607	0
1	10110	1611	1
1	10110	1611	0
1	10118	1612	1
1	10120	1612	0
1	10127	1613	1
1	10142	1615	0
1	10184	1625	1
1	10184	1625	0
1	10212	1630	1
1	10212	1630	0
1	10232	1634	1
1	10232	1634	0
1	10241	1636	1
1	10241	1636	0
1	10242	1636	1
1	10248	1637	0
1	10253	1638	1
1	10256	1638	0
1	10263	1639	1
1	10267	1639	0
1	10290	1643	1
1	10290	1643	0
1	10310	1646	1
1	10310	1646	0
1	10331	1648	1
1	10341	1649	0
1	10367	1652	1
1	10367	1652	0
1	10377	1653	1
1	10380	1653	0
1	10397	1655	1
1	10397	1655	0
1	10407	1656	1
1	10412	1656	0
1	10421	1657	1
1	10423	1657	0
1	10493	1666	1
1	10493	1666	0
1	10502	1667	1
1	10507	1667	0
1	10537	1671	1
1	10537	1671	0
1	10586	1678	1
1	10586	1678	0
1	10615	1682	1
1	10615	1682	0
1	10704	1700	1
1	10704	1700	0
1	10711	1701	1
1	10713	1701	0
1	10722	1703	1
1	10722	1703	0
1	10730	1704	1
1	10733	1704	0
1	10850	1724	1
1	10850	1724	0
1	10873	1727	1
1	10873	1727	0
1	10874	1727	1
1	10885	1728	0
1	10907	1733	1
1	10907	1733	0
1	10908	1733	1
1	10914	1734	0
1	10922	1736	1
1	10926	1737	0
1	10960	1744	1
1	10960	1744	0
1	10990	1749	1
1	10990	1749	0
1	11008	1751	1
1	11008	1751	0
1	11118	1768	1
1	11118	1768	0
1	11161	1775	1
1	11161	1775	0
1	11201	1782	1
1	11201	1782	0
1	11215	1785	1
1	11215	1785	0
1	11222	1786	1
1	11225	1786	0
1	11232	1787	1
1	11236	1787	0
1	11250	1791	1
1	11250	1791	0
1	11299	1798	1
1	11299	1798	0
1	11315	1801	1
1	11315	1801	0
1	11333	1803	1
1	11333	1803	0
1	11358	1806	1
1	11358	1806	0
1	11365	1807	1
1	11368	1807	0
1	11435	1819	1
1	11435	1819	0
1	11516	1837	1
1	11516	1837	0
1	11525	1838	1
1	11530	1838	0
1	11582	1845	1
1	11582	1845	0
1	11634	1852	1
1	11634	1852	0
1	11652	1854	1
1	11652	1854	0
1	11653	1854	1
1	11665	1855	2
1	11667	1855	1
1	11679	1856	0
1	11703	1859	1
1	11703	1859	0
1	11704	1859	1
1	11715	1860	0
1	11749	1865	1
1	11749	1865	0
1	11760	1868	1
1	11760	1868	0
1	11768	1869	1
1	11772	1869	0
1	11822	1879	1
1	11822	1879	0
1	11872	1886	1
1	11872	1886	0
1	11913	1894	1
1	11913	1894	0
1	11941	1898	1
1	11941	1898	0
1	11950	1900	1
1	11950	1900	0
1	11962	1902	1
1	11962	1902	0
1	12091	1928	1
1	12091	1928	0
1	12126	1933	1
1	12126	1933	0
1	12131	1934	1
1	12133	1934	0
1	12179	1947	1
1	12179	1947	0
1	12231	1958	1
1	12231	1958	0
1	12236	1959	1
1	12240	1960	2
1	12247	1961	1
1	12248	1961	2
1	12258	1962	3
1	12259	1962	4
1	12263	1962	3
1	12273	1963	2
1	12283	1964	1
1	12293	1965	0
1	12325	1972	1
1	12325	1972	0
1	12380	1985	1
1	12380	1985	0
1	12402	1988	1
1	12402	1988	0
1	12456	2000	1
1	12456	2000	0
1	12502	2006	1
1	12502	2006	0
1	12516	2008	1
1	12520	2009	0
1	12542	2012	1
1	12542	2012	0
1	12568	2015	1
1	12568	2015	0
1	12577	2016	1
1	12579	2016	0
1	12663	2031	1
1	12663	2031	0
1	12771	2047	1
1	12771	2047	0
1	12772	2047	1
1	12783	2048	0
1	12837	2060	1
1	12837	2060	0
1	12842	2061	1
1	12844	2061	0
1	12855	2064	1
1	12855	2064	0
1	12863	2066	1
1	12867	2067	0
1	12868	2067	1
1	12874	2068	0
1	12941	2079	1
1	12941	2079	0
1	12950	2080	1
1	12953	2080	0
1	13046	2099	1
1	13046	2099	0
1	13081	2103	1
1	13081	2103	0
1	13181	2117	1
1	13181	2117	0
1	13261	2129	1
1	13261	2129	0
1	13262	2129	1
1	13272	2130	0
1	13295	2133	1
1	13295	2133	0
1	13320	2136	1
1	13320	2136	0
1	13332	2137	1
1	13335	2137	0
1	13365	2141	1
1	13365	2141	0
1	13387	2144	1
1	13387	2144	0
1	13489	2165	1
1	13489	2165	0
1	13553	2180	1
1	13553	2180	0
1	13572	2184	1
1	13572	2184	0
1	13601	2191	1
1	13601	2191	0
1	13619	2195	1
1	13619	2195	0
1	13624	2196	1
1	13625	2196	2
1	13627	2196	1
1	13638	2199	0
1	13656	2203	1
1	13656	2203	0
1	13675	2206	1
1	13675	2206	0
1	13698	2210	1
1	13698	2210	0
1	13718	2214	1
1	13718	2214	0
1	13727	2216	1
1	13727	2216	0
1	13742	2221	1
1	13742	2221	0
1	13743	2221	1
1	13757	2222	0
1	13789	2226	1
1	13789	2226	0
1	13790	2226	1
1	13801	2227	0
1	13819	2229	1
1	13827	2230	0
1	13857	2234	1
1	13857	2234	0
1	13880	2238	1
1	13880	2238	0
1	13927	2249	1
1	13927	2249	0
1	13954	2254	1
1	13954	2254	0
1	13980	2258	1
1	13980	2258	0
1	14012	2263	1
1	14012	2263	0
1	14045	2267	1
1	14045	2267	0
1	14123	2281	1
1	14123	2281	0
1	14124	2281	1
1	14130	2282	0
1	14138	2284	1
1	14146	2285	0
1	14179	2291	1
1	14179	2291	0
1	14184	2292	1
1	14188	2292	0
1	14216	2297	1
1	14216	2297	0
1	14224	2298	1
1	14228	2298	0
1	14268	2304	1
1	14268	2304	0
1	14341	2317	1
1	14341	2317	0
1	14342	2317	1
1	14348	2318	0
1	14353	2319	1
1	14357	2319	0
1	14373	2321	1
1	14373	2321	0
1	14391	2323	1
1	14400	2324	0
1	14443	2335	1
1	14443	2335	0
1	14467	2338	1
1	14467	2338	0
1	14478	2340	1
1	14478	2340	0
1	14523	2348	1
1	14523	2348	0
1	14524	2348	1
1	14534	2349	0
1	14545	2351	1
1	14545	2351	0
1	14566	2359	1
1	14566	2359	0
1	14567	2359	1
1	14574	2360	0
1	14631	2370	1
1	14631	2370	0
1	14702	2379	1
1	14702	2379	0
1	14719	2381	1
1	14719	2381	0
1	14748	2385	1
1	14748	2385	0
1	14906	2412	1
1	14906	2412	0
1	14924	2414	1
1	14924	2414	0
1	14993	2427	1
1	14993	2427	0
1	15007	2430	1
1	15007	2430	0
1	15036	2434	1
1	15036	2434	0
1	15048	2435	1
1	15053	2435	0
1	15077	2438	1
1	15077	2438	0
1	15109	2442	1
1	15109	2442	0
1	15119	2443	1
1	15122	2443	0
1	15159	2448	1
1	15159	2448	0
1	15169	2449	1
1	15171	2449	0
1	15218	2457	1
1	15218	2457	0
1	15237	2459	1
1	15237	2459	0
1	15255	2461	1
1	15255	2461	0
1	15262	2462	1
1	15267	2462	0
1	15296	2468	1
1	15296	2468	0
1	15345	2476	1
1	15345	2476	0
1	15402	2488	1
1	15402	2488	0
1	15431	2492	1
1	15431	2492	0
1	15458	2495	1
1	15458	2495	0
1	15482	2498	1
1	15482	2498	0
1	15499	2500	1
1	15499	2500	0
1	15532	2513	1
1	15532	2513	0
1	15541	2515	1
1	15541	2515	0
1	15542	2515	1
1	15551	2516	0
1	15586	2523	1
1	15586	2523	0
1	15631	2530	1
1	15631	2530	0
1	15669	2536	1
1	15669	2536	0
1	15695	2540	1
1	15695	2540	0
1	15724	2547	1
1	15724	2547	0
1	15747	2550	1
1	15747	2550	0
1	15755	2551	1
1	15757	2551	0
1	15768	2553	1
1	15768	2553	0
1	15793	2556	1
1	15793	2556	0
1	15861	2573	1
1	15861	2573	0
1	15862	2573	1
1	15876	2574	0
1	15969	2592	1
1	15969	2592	0
1	15970	2592	1
1	15980	2593	2
1	16002	2595	1
1	16003	2595	2
1	16013	2596	1
1	16024	2597	0
1	16033	2598	1
1	16036	2598	0
1	16084	2606	1
1	16084	2606	0
1	16114	2613	1
1	16114	2613	0
1	16115	2613	1
1	16125	2614	2
1	16127	2614	1
1	16138	2615	0
1	16159	2618	1
1	16159	2618	0
1	16164	2619	1
1	16168	2619	0
1	16193	2622	1
1	16193	2622	0
1	16216	2626	1
1	16216	2626	0
1	16241	2631	1
1	16241	2631	0
1	16242	2631	1
1	16247	2632	2
1	16250	2632	1
1	16260	2633	0
1	16288	2638	1
1	16288	2638	0
1	16350	2648	1
1	16350	2648	0
1	16378	2653	1
1	16378	2653	0
1	16408	2657	1
1	16408	2657	0
1	16409	2657	1
1	16424	2658	0
1	16477	2665	1
1	16477	2665	0
1	16489	2666	1
1	16490	2666	2
1	16492	2666	1
1	16503	2667	0
1	16562	2675	1
1	16562	2675	0
1	16593	2679	1
1	16593	2679	0
1	16614	2682	1
1	16614	2682	0
1	16655	2691	1
1	16655	2691	0
1	16677	2693	1
1	16677	2693	0
1	16730	2700	1
1	16730	2700	0
1	16741	2701	1
1	16743	2701	0
1	16802	2709	1
1	16802	2709	0
1	16838	2716	1
1	16838	2716	0
1	16847	2718	1
1	16847	2718	0
1	16848	2718	1
1	16858	2719	0
1	16973	2736	1
1	16973	2736	0
1	16982	2737	1
1	16985	2737	0
1	17046	2751	1
1	17046	2751	0
1	17131	2765	1
1	17131	2765	0
1	17139	2766	1
1	17144	2766	0
1	17153	2767	1
1	17156	2767	0
1	17222	2776	1
1	17222	2776	0
1	17236	2778	1
1	17236	2778	0
1	17253	2781	1
1	17253	2781	0
1	17286	2785	1
1	17286	2785	0
1	17363	2796	1
1	17363	2796	0
1	17382	2798	1
1	17382	2798	0
1	17411	2803	1
1	17411	2803	0
1	17452	2813	1
1	17452	2813	0
1	17479	2816	1
1	17479	2816	0
1	17715	2855	1
1	17715	2855	0
1	17760	2864	1
1	17760	2864	0
1	17845	2875	1
1	17845	2875	0
1	17854	2876	1
1	17857	2876	0
1	17910	2883	1
1	17910	2883	0
1	17942	2887	1
1	17942	2887	0
1	17961	2889	1