version 3
run Experimentos-797-20260508-20:06:17-31823
attr configname Experimentos
attr datetime 20260508-20:06:17
attr datetimef 20260508-200617
attr experiment Experimentos
attr inifile TwoQueues.ini
attr iterationvars "$p=0.7, $q=0.3, $Y=10, $m=5"
attr iterationvarsd p=0.7/q=0.3/Y=10/m=5
attr iterationvarsf p=0.7,q=0.3,Y=10,m=5-
attr measurement "$p=0.7, $q=0.3, $Y=10, $m=5"
attr network TwoQueues
attr processid 31823
attr repetition 17
attr replication #17
attr resultdir results
attr runnumber 797
attr seedset 797
itervar Y 10
itervar m 5
itervar p 0.7
itervar q 0.3
config description "Barrido completo de parámetros Proyecto 12"
config **.source1.p 0.7
config **.source1.q 0.2
config **.source2.p 0.6
config **.source2.q 0.3
config **.serverWithMaintenance.Y 10
config **.serverWithMaintenance.m 5
config network TwoQueues
config cpu-time-limit 5000s
config sim-time-limit 5000s
config warmup-period 400s
config repeat 20
config output-scalar-file results/Experimentos-p=0.7,q=0.3,Y=10,m=5--#17.sca
config output-vector-file results/Experimentos-p=0.7,q=0.3,Y=10,m=5--#17.vec
config **.vector-recording true

vector 0 TwoQueues.serverWithMaintenance residenceTime2:vector ETV
attr recordingmode vector
attr source delay2
attr title "Residence Time Class 2"
vector 1 TwoQueues.queue2 queueLengthStats:vector ETV
attr recordingmode vector
attr source qlen
attr title "Average Queue Length"
vector 2 TwoQueues.queue1 queueLengthStats:vector ETV
attr recordingmode vector
attr source qlen
attr title "Average Queue Length"
vector 3 TwoQueues.server residenceTime1:vector ETV
attr recordingmode vector
attr source delay1
attr title "Residence Time Class 1"
vector 4 TwoQueues.server throughputStats1:vector ETV
attr recordingmode vector
attr source throughput1
attr title "Throughput Class 1"
0	2442	405	1
0	2453	406	2
0	2473	409	1
0	2479	410	2
0	2539	427	1
0	2568	431	1
0	2594	434	1
0	2612	436	1
0	2622	437	2
0	2653	442	1
0	2685	446	1
0	2712	451	1
0	2736	458	1
0	2752	460	1
0	2778	466	1
0	2790	469	1
0	2796	470	2
0	2803	471	1
0	2811	472	1
0	2817	473	2
0	2828	474	1
0	2845	476	1
0	2866	480	1
0	2873	481	1
0	2897	487	1
0	2903	488	2
0	2922	491	1
0	2971	502	1
0	2982	503	1
0	2993	504	1
0	3010	506	1
0	3016	507	2
0	3024	508	1
0	3030	509	2
0	3063	515	2
0	3073	516	1
0	3111	523	1
0	3125	525	1
0	3151	528	1
0	3164	529	1
0	3175	530	2
0	3214	538	1
0	3223	540	1
0	3264	548	1
0	3294	554	6
0	3302	555	6
0	3312	556	3
0	3322	557	3
0	3330	558	4
0	3357	564	1
0	3401	571	1
0	3433	577	1
0	3460	583	1
0	3499	592	1
0	3527	598	7
0	3534	599	4
0	3540	600	2
0	3552	602	1
0	3564	603	1
0	3577	604	1
0	3608	608	1
0	3620	610	1
0	3627	611	1
0	3660	620	1
0	3719	628	1
0	3734	630	1
0	3752	633	1
0	3762	635	1
0	3772	636	2
0	3780	637	2
0	3795	642	1
0	3820	647	1
0	3849	653	1
0	3875	657	1
0	3903	663	2
0	3926	667	1
0	3963	673	1
0	3972	675	1
0	3987	677	1
0	3996	678	2
0	4005	679	1
0	4012	680	1
0	4025	684	1
0	4079	695	1
0	4106	701	6
0	4115	702	4
0	4126	704	1
0	4133	705	1
0	4143	706	1
0	4152	707	1
0	4159	708	1
0	4166	709	1
0	4190	715	1
0	4208	719	1
0	4278	733	1
0	4318	742	1
0	4336	744	1
0	4354	746	1
0	4370	748	1
0	4388	751	1
0	4404	754	1
0	4439	760	1
0	4450	762	1
0	4468	767	1
0	4519	777	1
0	4530	779	1
0	4545	780	1
0	4624	797	1
0	4662	802	1
0	4682	805	1
0	4703	807	1
0	4761	815	1
0	4773	816	2
0	4783	817	2
0	4826	823	4
0	4837	824	3
0	4844	825	4
0	4853	826	3
0	4861	827	4
0	4867	828	4
0	4901	840	1
0	4956	852	1
0	4966	853	2
0	4974	854	2
0	5007	860	3
0	5016	862	1
0	5023	863	1
0	5046	867	1
0	5070	874	1
0	5102	878	1
0	5119	880	1
0	5135	883	1
0	5145	884	1
0	5159	886	1
0	5210	896	1
0	5217	897	1
0	5224	898	1
0	5241	900	1
0	5252	901	1
0	5268	905	1
0	5281	909	1
0	5288	910	1
0	5311	914	1
0	5369	923	1
0	5400	929	6
0	5409	930	4
0	5417	931	3
0	5424	932	4
0	5430	933	2
0	5443	936	1
0	5456	937	1
0	5479	940	1
0	5488	942	1
0	5495	943	1
0	5532	949	2
0	5550	951	1
0	5559	952	2
0	5570	955	1
0	5583	959	1
0	5593	960	1
0	5623	964	1
0	5632	966	1
0	5642	967	1
0	5676	972	1
0	5703	978	5
0	5710	979	2
0	5716	980	2
0	5736	985	1
0	5764	992	1
0	5774	993	2
0	5784	994	1
0	5791	995	1
0	5809	998	1
0	5840	1007	1
0	5900	1019	1
0	5920	1024	1
0	5951	1032	1
0	5962	1033	1
0	5973	1034	2
0	5992	1036	1
0	6008	1038	1
0	6027	1045	1
0	6039	1046	1
0	6055	1048	1
0	6105	1057	1
0	6117	1058	2
0	6127	1059	2
0	6134	1060	2
0	6143	1061	2
0	6152	1062	1
0	6163	1065	1
0	6172	1067	1
0	6190	1071	1
0	6219	1078	1
0	6262	1084	2
0	6273	1085	2
0	6282	1086	3
0	6288	1087	3
0	6295	1088	1
0	6302	1089	1
0	6323	1092	1
0	6336	1096	1
0	6343	1097	1
0	6366	1101	1
0	6396	1107	2
0	6431	1113	1
0	6449	1116	1
0	6475	1119	1
0	6504	1125	1
0	6529	1128	1
0	6540	1129	1
0	6571	1133	1
0	6627	1146	1
0	6649	1152	1
0	6677	1158	6
0	6728	1171	1
0	6739	1172	1
0	6750	1173	1
0	6768	1176	1
0	6799	1184	1
0	6817	1188	1
0	6835	1192	1
0	6869	1197	1
0	6935	1211	1
0	6988	1217	6
0	6999	1218	3
0	7010	1219	3
0	7020	1220	3
0	7040	1224	1
0	7050	1225	1
0	7071	1227	1
0	7081	1228	2
0	7100	1230	1
0	7114	1231	2
0	7164	1237	7
0	7174	1238	7
0	7186	1239	7
0	7198	1240	4
0	7208	1241	5
0	7218	1242	4
0	7226	1243	2
0	7232	1244	2
0	7241	1245	3
0	7256	1248	1
0	7296	1256	1
0	7312	1259	1
0	7334	1265	1
0	7354	1272	1
0	7360	1273	2
0	7395	1278	1
0	7417	1284	1
0	7431	1286	1
0	7464	1290	1
0	7483	1292	1
0	7526	1298	5
0	7544	1301	1
0	7571	1308	1
0	7589	1311	1
0	7608	1314	1
0	7650	1325	1
0	7673	1328	1
0	7687	1331	1
0	7710	1336	1
0	7722	1337	1
0	7758	1343	7
0	7764	1344	5
0	7771	1345	1
0	7790	1352	1
0	7801	1354	1
0	7811	1355	1
0	7848	1365	1
0	7860	1367	1
0	7867	1368	1
0	7892	1374	1
0	7913	1380	7
0	7922	1381	5
0	7931	1382	1
0	7980	1394	1
0	7987	1395	1
0	7996	1397	1
0	8006	1398	1
0	8072	1415	1
0	8081	1417	1
0	8088	1418	1
0	8113	1424	3
0	8132	1427	1
0	8142	1428	1
0	8151	1429	1
0	8160	1430	1
0	8166	1431	2
0	8176	1432	3
0	8202	1434	1
0	8213	1435	2
0	8223	1436	2
0	8270	1442	5
0	8281	1443	5
0	8291	1444	6
0	8302	1445	1
0	8314	1446	1
0	8334	1448	1
0	8346	1449	1
0	8363	1451	1
0	8392	1459	1
0	8399	1460	1
0	8421	1466	6
0	8431	1467	4
0	8464	1471	1
0	8474	1472	1
0	8481	1473	1
0	8518	1480	1
0	8530	1481	1
0	8546	1483	1
0	8557	1485	1
0	8572	1487	1
0	8615	1493	6
0	8624	1494	5
0	8632	1495	5
0	8640	1496	4
0	8646	1497	2
0	8652	1498	3
0	8680	1501	1
0	8690	1502	2
0	8701	1503	1
0	8719	1505	1
0	8740	1511	7
0	8752	1512	2
0	8762	1513	2
0	8773	1514	1
0	8798	1519	1
0	8808	1520	2
0	8817	1521	2
0	8827	1522	1
0	8833	1523	2
0	8846	1527	1
0	8872	1533	3
0	8940	1547	1
0	8978	1553	1
0	8989	1554	1
0	9000	1555	1
0	9013	1557	1
0	9019	1558	2
0	9037	1560	1
0	9048	1561	1
0	9060	1562	1
0	9087	1568	6
0	9093	1569	4
0	9099	1570	3
0	9127	1575	1
0	9189	1588	1
0	9206	1590	1
0	9260	1599	1
0	9271	1600	1
0	9337	1614	1
0	9362	1619	1
0	9394	1626	1
0	9414	1631	1
0	9441	1638	1
0	9461	1643	1
0	9471	1644	2
0	9481	1645	3
0	9487	1646	2
0	9530	1654	1
0	9554	1657	1
0	9572	1659	1
0	9618	1665	4
0	9630	1667	1
0	9637	1668	1
0	9644	1669	1
0	9657	1673	1
0	9670	1674	1
0	9702	1678	1
0	9726	1681	1
0	9737	1682	1
0	9754	1684	1
0	9791	1690	3
0	9803	1691	2
0	9815	1692	3
0	9821	1693	3
0	9830	1694	3
0	9838	1695	4
0	9844	1696	5
0	9855	1698	1
0	9875	1700	1
0	9972	1720	1
0	10102	1742	1
0	10111	1744	1
0	10124	1748	1
0	10131	1749	1
0	10138	1750	1
0	10148	1751	1
0	10157	1752	1
0	10164	1753	1
0	10199	1763	1
0	10208	1765	1
0	10253	1771	5
0	10263	1772	3
0	10275	1773	4
0	10285	1774	4
0	10296	1775	1
0	10329	1785	1
0	10348	1788	1
0	10403	1797	1
0	10430	1803	1
0	10440	1804	1
0	10486	1813	1
0	10545	1821	1
0	10574	1827	1
0	10582	1828	1
0	10588	1829	2
0	10606	1831	1
0	10618	1832	2
0	10627	1833	3
0	10633	1834	3
0	10640	1835	1
0	10658	1841	2
0	10669	1844	1
0	10703	1853	1
0	10709	1854	2
0	10762	1863	1
0	10785	1866	1
0	10805	1869	1
0	10811	1870	2
0	10833	1876	1
0	10848	1881	1
0	10936	1898	1
0	10945	1899	2
0	10952	1900	1
0	10965	1903	1
0	10980	1904	1
0	11040	1914	1
0	11052	1915	1
0	11062	1916	2
0	11075	1918	1
0	11090	1920	1
0	11121	1926	7
0	11128	1927	5
0	11138	1928	5
0	11146	1929	6
0	11152	1930	7
0	11158	1931	7
0	11168	1932	7
0	11178	1933	7
0	11189	1934	7
0	11198	1935	1
0	11227	1941	6
0	11237	1942	3
0	11245	1943	2
0	11261	1945	1
0	11314	1955	1
0	11325	1957	1
0	11357	1965	1
0	11369	1966	1
0	11398	1970	1
0	11409	1971	2
0	11455	1977	6
0	11461	1978	6
0	11471	1979	4
0	11481	1980	5
0	11493	1981	6
0	11504	1982	7
0	11516	1983	8
0	11532	1985	1
0	11544	1987	1
0	11557	1988	1
0	11608	1994	4
0	11619	1995	5
0	11629	1996	4
0	11644	1997	5
0	11728	2009	1
0	11795	2022	1
0	11802	2023	1
0	11828	2031	1
0	11858	2037	1
0	11867	2038	2
0	11901	2046	1
0	11910	2047	2
0	11918	2048	3
0	11929	2051	1
0	11936	2052	1
0	11945	2054	1
0	11958	2058	1
0	11988	2063	1
0	11995	2064	1
0	12005	2065	1
0	12034	2071	4
0	12044	2072	4
0	12055	2073	1
0	12061	2074	2
0	12070	2076	1
0	12101	2084	1
0	12117	2087	1
0	12130	2090	1
0	12147	2094	1
0	12153	2095	2
0	12171	2101	4
0	12191	2107	1
0	12215	2112	1
0	12241	2116	1
0	12259	2120	1
0	12283	2126	1
0	12338	2136	1
0	12362	2140	1
0	12371	2141	2
0	12399	2147	1
0	12429	2153	7
0	12435	2154	7
0	12441	2155	7
0	12453	2156	8
0	12470	2158	1
0	12525	2170	1
0	12551	2175	1
0	12557	2176	2
0	12566	2178	1
0	12573	2179	1
0	12604	2185	6
0	12613	2186	7
0	12642	2193	1
0	12660	2197	1
0	12673	2200	1
0	12687	2202	1
0	12713	2206	1
0	12734	2209	1
0	12741	2210	1
0	12750	2212	1
0	12775	2218	3
0	12787	2220	1
0	12804	2223	1
0	12814	2224	2
0	12822	2225	2
0	12840	2228	1
0	12867	2235	1
0	12906	2246	1
0	12916	2247	1
0	12934	2251	1
0	12966	2261	1
0	12976	2262	2
0	12993	2264	1
0	13011	2266	1
0	13021	2267	2
0	13068	2275	1
0	13115	2286	1
0	13133	2290	1
0	13154	2293	1
0	13177	2297	1
0	13215	2303	2
0	13226	2304	2
0	13238	2305	3
0	13249	2306	3
0	13265	2308	1
0	13283	2311	1
0	13329	2318	1
0	13341	2319	1
0	13352	2320	2
0	13363	2321	2
0	13399	2327	2
0	13411	2330	1
0	13417	2331	2
0	13424	2332	1
0	13437	2335	1
0	13451	2336	1
0	13462	2337	2
0	13471	2338	2
0	13497	2346	1
0	13514	2350	1
0	13564	2356	6
0	13576	2357	5
0	13586	2358	4
0	13610	2361	1
0	13646	2369	1
0	13666	2371	1
0	13682	2373	1
0	13727	2383	1
0	13750	2387	1
0	13757	2388	1
0	13795	2394	5
0	13808	2397	1
0	13818	2398	1
0	13829	2399	1
0	13866	2407	1
0	13888	2413	1
0	13913	2418	1
0	13923	2419	1
0	13936	2422	1
0	13955	2425	1
0	13977	2431	7
0	13988	2432	1
0	13997	2433	2
0	14022	2441	1
0	14032	2442	1
0	14043	2444	1
0	14058	2446	1
0	14067	2447	2
0	14074	2448	1
0	14092	2451	1
0	14131	2459	1
0	14142	2460	1
0	14162	2464	1
0	14183	2471	1
0	14206	2476	1
0	14240	2483	1
0	14247	2484	1
0	14264	2486	1
0	14295	2492	1
0	14315	2495	1
0	14349	2501	7
0	14358	2502	4
0	14367	2503	5
0	14375	2504	4
0	14386	2505	5
0	14396	2506	6
0	14408	2507	3
0	14439	2511	1
0	14474	2516	1
0	14484	2517	1
0	14513	2523	4
0	14520	2524	4
0	14531	2525	2
0	14541	2526	2
0	14559	2529	1
0	14575	2532	1
0	14588	2536	1
0	14602	2538	1
0	14609	2539	1
0	14644	2545	1
0	14677	2551	4
0	14688	2552	5
0	14705	2554	1
0	14716	2557	1
0	14738	2563	1
0	14756	2567	1
0	14778	2575	1
0	14784	2576	2
0	14818	2583	1
0	14828	2584	1
0	14865	2590	5
0	14877	2591	5
0	14888	2592	5
0	14896	2593	3
0	14903	2594	4
0	14910	2595	4
0	14919	2596	3
0	14927	2597	3
0	14934	2598	1
0	14941	2599	1
0	14967	2605	6
0	14973	2606	7
0	14979	2607	6
0	14990	2608	6
0	14998	2609	2
0	15006	2610	3
0	15016	2611	2
0	15028	2612	3
0	15036	2613	2
0	15043	2614	3
0	15071	2620	7
0	15077	2621	7
0	15097	2626	1
0	15107	2627	1
0	15130	2631	1
0	15141	2632	2
0	15170	2640	1
0	15194	2647	1
0	15221	2653	1
0	15228	2654	1
0	15246	2660	2
0	15276	2670	1
0	15296	2675	1
0	15305	2677	1
0	15324	2681	1
0	15330	2682	2
0	15346	2685	1
0	15370	2691	1
0	15389	2694	1
0	15403	2696	1
0	15451	2709	1
0	15462	2710	2
0	15472	2711	2
0	15501	2717	1
0	15512	2720	1
0	15529	2725	1
0	15548	2727	1
0	15558	2728	1
0	15603	2737	1
0	15633	2743	1
0	15749	2762	1
0	15759	2763	1
0	15784	2768	1
0	15806	2773	1
0	15825	2775	1
0	15837	2776	1
0	15877	2782	1
0	15886	2784	1
0	15942	2793	1
0	15967	2797	1
0	15996	2803	6
0	16005	2804	4
0	16045	2811	1
0	16067	2814	1
0	16074	2815	1
0	16084	2816	1
0	16097	2818	1
0	16107	2819	1
0	16136	2825	1
0	16148	2826	1
0	16179	2832	2
0	16204	2837	1
0	16213	2839	1
0	16247	2846	1
0	16260	2849	1
0	16272	2850	1
0	16303	2859	1
0	16321	2862	1
0	16352	2867	1
0	16385	2871	1
0	16427	2877	5
0	16433	2878	6
0	16442	2879	3
0	16455	2880	1
0	16466	2881	2
0	16475	2882	1
0	16483	2883	1
0	16489	2884	2
0	16509	2889	1
0	16529	2894	1
0	16575	2900	5
0	16586	2901	5
0	16603	2903	1
0	16616	2904	1
0	16626	2905	2
0	16637	2906	3
0	16655	2908	1
0	16678	2913	1
0	16689	2915	1
0	16708	2918	1
0	16764	2928	1
0	16780	2931	1
0	16787	2932	1
0	16794	2933	1
0	16818	2941	1
0	16836	2943	1
0	16848	2945	1
0	16859	2948	1
0	16874	2952	1
0	16899	2957	1
0	16931	2963	4
0	16941	2964	2
0	17017	2981	1
0	17024	2982	2
0	17031	2983	2
0	17041	2984	2
0	17049	2985	2
0	17056	2986	1
0	17065	2988	1
0	17076	2991	1
0	17115	2997	6
0	17125	2998	4
0	17134	2999	5
0	17140	3000	4
0	17178	3009	1
0	17194	3011	1
0	17229	3017	1
0	17240	3019	1
0	17252	3020	1
0	17314	3032	1
0	17348	3038	4
0	17396	3045	1
0	17403	3046	1
0	17426	3049	1
0	17438	3051	1
0	17477	3058	1
0	17484	3059	1
0	17491	3060	1
0	17515	3066	1
0	17556	3073	1
0	17594	3079	7
0	17606	3080	6
0	17616	3081	3
0	17628	3083	1
0	17642	3085	1
0	17673	3090	1
0	17679	3091	2
0	17711	3096	1
0	17723	3098	1
0	17740	3103	1
0	17784	3109	5
0	17794	3110	5
0	17812	3112	1
0	17837	3115	1
0	17848	3116	2
0	17859	3117	2
0	17869	3118	1
0	17882	3122	1
0	17947	3136	1
0	17959	3138	1
0	17993	3144	5
0	18003	3145	4
0	18012	3146	3
0	18018	3147	4
0	18032	3150	1
0	18044	3151	1
0	18062	3154	1
0	18069	3155	1
0	18082	3159	1
0	18098	3161	1
0	18170	3177	1
0	18177	3178	2
0	18185	3179	2
0	18191	3180	2
0	18197	3181	3
0	18207	3183	1
0	18213	3184	2
0	18220	3185	1
0	18240	3190	1
0	18251	3191	1
0	18284	3197	7
0	18290	3198	7
0	18300	3199	7
0	18312	3200	6
0	18320	3201	6
0	18326	3202	4
0	18332	3203	4
0	18344	3206	1
0	18354	3207	2
0	18362	3208	2
0	18389	3214	6
0	18398	3215	6
0	18405	3216	7
0	18411	3217	2
0	18439	3222	1
0	18452	3223	2
0	18461	3224	2
0	18470	3225	3
0	18479	3226	1
0	18506	3232	1
0	18548	3238	2
0	18559	3239	2
0	18577	3241	1
0	18624	3248	1
0	18636	3250	1
0	18680	3261	1
0	18700	3265	1
0	18714	3268	1
0	18741	3273	1
0	18757	3277	1
0	18780	3283	4
0	18797	3289	1
0	18826	3296	1
0	18849	3300	1
0	18874	3304	1
0	18901	3311	1
0	18916	3316	1
0	18933	3318	1
0	19065	3344	1
0	19076	3345	1
0	19111	3351	2
0	19122	3352	2
0	19133	3353	1
0	19168	3364	1
0	19186	3367	1
0	19198	3368	1
0	19205	3369	2
0	19211	3370	3
0	19221	3371	3
0	19229	3372	2
0	19253	3378	6
0	19262	3379	6
0	19271	3380	6
0	19280	3381	6
0	19287	3382	5
0	19293	3383	3
0	19300	3384	3
0	19306	3385	2
0	19336	3390	1
0	19346	3391	1
0	19377	3397	6
0	19387	3398	3
0	19404	3400	1
0	19421	3402	1
0	19438	3405	1
0	19444	3406	2
0	19455	3407	1
0	19463	3408	2
0	19475	3409	1
0	19496	3412	1
0	19530	3418	5
0	19541	3419	5
0	19552	3420	5
0	19558	3421	5
0	19564	3422	4
0	19570	3423	4
0	19576	3424	5
0	19590	3427	1
0	19606	3429	1
0	19615	3431	1
0	19640	3437	6
0	19647	3438	6
0	19656	3439	6
0	19664	3440	3
0	19675	3443	1
0	19731	3456	1
0	19752	3459	1
0	19759	3460	1
0	19772	3463	1
0	19784	3464	1
0	19815	3470	4
0	19835	3475	1
0	19846	3478	1
0	19863	3484	1
0	19904	3492	1
0	19919	3497	1
0	19981	3510	1
0	19987	3511	2
0	20007	3515	1
0	20013	3516	2
0	20038	3522	8
0	20063	3526	1
0	20078	3531	1
0	20105	3535	1
0	20115	3536	2
0	20125	3537	1
0	20141	3540	1
0	20150	3542	1
0	20161	3545	1
0	20177	3547	1
0	20208	3553	3
0	20226	3557	1
0	20263	3563	1
0	20293	3573	1
0	20303	3574	1
0	20317	3576	1
0	20328	3577	2
0	20378	3588	1
0	20392	3590	1
0	20399	3591	1
0	20431	3597	5
0	20442	3598	5
0	20483	3603	1
0	20496	3604	1
0	20515	3606	1
0	20526	3607	1
0	20537	3608	1
0	20555	3610	1
0	20565	3611	1
0	20582	3614	1
0	20622	3620	7
0	20632	3621	5
0	20640	3622	6
0	20646	3623	6
0	20653	3624	4
0	20659	3625	2
0	20675	3628	1
0	20716	3635	1
0	20760	3642	1
0	20775	3645	1
0	20804	3651	7
0	20813	3652	4
0	20823	3653	4
0	20832	3654	2
0	20840	3655	3
0	20856	3658	1
0	20870	3660	1
0	20877	3661	1
0	20893	3664	1
0	20923	3671	1
0	20952	3677	7
0	20980	3682	1
0	20989	3684	1
0	21016	3689	1
0	21042	3694	1
0	21058	3696	1
0	21114	3704	1
0	21137	3708	1
0	21158	3716	1
0	21172	3718	1
0	21204	3724	5
0	21213	3725	5
0	21219	3726	4
0	21245	3730	1
0	21254	3731	2
0	21265	3734	1
0	21291	3741	1
0	21304	3742	1
0	21320	3744	1
0	21336	3746	1
0	21378	3752	6
0	21389	3753	7
0	21400	3754	7
0	21410	3755	2
0	21420	3756	1
0	21445	3762	1
0	21457	3763	1
0	21466	3764	2
0	21473	3765	1
0	21480	3766	1
0	21507	3772	6
0	21516	3773	5
0	21522	3774	3
0	21541	3781	1
0	21565	3788	1
0	21591	3796	1
0	21602	3797	1
0	21649	3804	1
0	21675	3810	1
0	21681	3811	2
0	21700	3817	5
0	21706	3818	3
0	21728	3821	1
0	21737	3822	2
0	21762	3826	1
0	21822	3836	1
0	21902	3855	1
0	21949	3866	1
0	21964	3868	1
0	21980	3870	1
0	22009	3876	4
0	22018	3877	4
0	22029	3879	1
0	22043	3882	1
0	22054	3883	1
0	22070	3887	1
0	22080	3888	1
0	22111	3893	1
0	22123	3894	2
0	22132	3895	2
0	22150	3901	8
0	22157	3902	6
0	22164	3903	2
0	22170	3904	2
0	22183	3907	1
0	22211	3912	1
0	22225	3914	1
0	22232	3915	1
0	22244	3916	1
0	22255	3917	2
0	22288	3923	7
0	22294	3924	5
0	22300	3925	6
0	22311	3926	7
0	22321	3927	6
0	22331	3928	3
0	22337	3929	2
0	22343	3930	3
0	22352	3932	1
0	22363	3933	1
0	22398	3939	2
0	22404	3940	3
0	22414	3941	1
0	22429	3945	1
0	22453	3951	1
0	22477	3959	1
0	22513	3969	1
0	22520	3970	2
0	22526	3971	2
0	22561	3980	1
0	22589	3986	1
0	22608	3989	1
0	22619	3992	1
0	22658	3999	1
0	22665	4000	1
0	22684	4003	1
0	22696	4004	1
0	22707	4005	2
0	22732	4011	1
0	22744	4013	1
0	22773	4019	7
0	22783	4020	6
0	22793	4021	1
0	22825	4025	1
0	22847	4028	1
0	22854	4029	1
0	22861	4030	1
0	22871	4031	1
0	22910	4036	1
0	22942	4042	1
0	22963	4048	1
0	22989	4055	1
0	23001	4057	1
0	23016	4062	1
0	23036	4066	1
0	23061	4071	1
0	23119	4081	1
0	23151	4086	1
0	23189	4091	1
0	23199	4092	1
0	23230	4101	1
0	23242	4103	1
0	23258	4105	1
0	23283	4109	1
0	23304	4111	1
0	23316	4112	2
0	23325	4113	3
0	23331	4114	3
0	23347	4117	1
0	23354	4118	1
0	23386	4124	5
0	23396	4125	3
0	23419	4129	1
0	23429	4130	1
0	23440	4131	1
0	23449	4132	2
0	23456	4133	2
0	23466	4134	2
0	23480	4135	2
0	23490	4136	2
0	23520	4142	6
0	23527	4143	2
0	23533	4144	2
0	23540	4145	1
0	23547	4146	1
0	23565	4150	1
0	23597	4158	1
0	23605	4159	2
0	23614	4160	2
0	23622	4161	3
0	23641	4167	4
0	23652	4168	3
0	23663	4169	1
0	23678	4171	1
0	23691	4175	1
0	23721	4181	1
0	23739	4184	1
0	23758	4191	1
0	23811	4205	1
0	23842	4209	1
0	23880	4219	1
0	23891	4221	1
0	23901	4222	1
0	23937	4230	1
0	23975	4238	1
0	23994	4241	1
0	24001	4242	1
0	24041	4251	1
0	24057	4254	1
0	24067	4255	1
0	24087	4261	5
0	24094	4262	5
0	24102	4263	3
0	24111	4264	3
0	24119	4265	3
0	24125	4266	4
0	24140	4268	1
0	24147	4269	2
0	24153	4270	2
0	24186	4279	1
0	24206	4285	6
0	24212	4286	4
0	24219	4287	4
0	24225	4288	2
0	24233	4289	1
0	24239	4290	2
0	24246	4291	1
0	24270	4298	1
0	24288	4301	1
0	24342	4313	1
0	24380	4319	2
0	24390	4320	1
0	24429	4326	1
0	24443	4329	1
0	24466	4332	1
0	24476	4333	1
0	24490	4335	1
0	24508	4338	1
0	24566	4353	1
0	24580	4355	1
0	24612	4361	4
0	24623	4362	5
0	24632	4363	3
0	24642	4365	1
0	24649	4366	2
0	24658	4367	2
0	24674	4369	1
0	24694	4373	1
0	24706	4375	1
0	24722	4378	1
0	24745	4384	3
0	24755	4385	1
0	24768	4388	1
0	24791	4392	1
0	24808	4394	1
0	24824	4396	1
0	24842	4400	1
0	24865	4404	1
0	24872	4405	1
0	24881	4407	1
0	24962	4427	1
0	24972	4429	1
0	24980	4430	2
0	24990	4431	2
0	24999	4432	3
0	25009	4433	3
0	25017	4434	3
0	25027	4435	3
0	25042	4437	1
0	25054	4439	1
0	25101	4445	7
0	25111	4446	6
0	25121	4447	4
0	25131	4448	4
0	25138	4449	2
0	25150	4450	2
0	25194	4456	1
0	25214	4459	1
0	25236	4465	1
0	25253	4467	1
0	25271	4473	5
0	25278	4474	1
0	25293	4479	1
0	25329	4487	1
0	25342	4491	1
0	25352	4492	1
0	25406	4500	1
0	25412	4501	2
0	25474	4512	1
0	25490	4514	1
0	25532	4520	5
0	25581	4527	1
0	25587	4528	2
0	25598	4530	1
0	25610	4531	1
0	25633	4536	1
0	25644	4539	1
0	25653	4541	1
0	25666	4544	1
0	25678	4545	1
0	25704	4551	1
0	25731	4557	1
0	25747	4560	1
0	25772	4563	1
0	25806	4572	1
0	25850	4580	1
0	25862	4581	1
0	25873	4582	1
0	25894	4585	1
0	25922	4591	1
0	25954	4597	3
0	25960	4598	3
0	25966	4599	3
0	25981	4601	1
0	25987	4602	2
0	26017	4607	1
0	26033	4610	1
0	26044	4612	1
0	26056	4613	1
0	26091	4618	1
0	26117	4624	7
0	26126	4625	8
0	26133	4626	8
0	26143	4627	5
0	26153	4628	3
0	26192	4637	1
0	26203	4638	2
0	26214	4639	3
0	26258	4646	1
0	26272	4648	1
0	26309	4654	5
0	26315	4655	6
0	26336	4661	1
0	26346	4662	2
0	26415	4680	1
0	26422	4681	1
0	26443	4686	1
0	26450	4687	2
0	26456	4688	2
0	26467	4690	1
0	26501	4696	6
0	26507	4697	6
0	26513	4698	5
0	26523	4699	5
0	26536	4700	2
0	26563	4706	1
0	26588	4713	1
0	26594	4714	2
0	26673	4727	1
0	26744	4739	1
0	26774	4745	6
0	26783	4746	5
0	26794	4747	4
0	26803	4748	1
0	26823	4753	1
0	26837	4756	1
0	26849	4757	2
0	26886	4766	1
0	26896	4767	1
0	26905	4769	1
0	26928	4775	2
0	26935	4776	1
0	26953	4780	1
0	26967	4782	1
0	26985	4786	1
0	26996	4788	1
0	27010	4791	1
0	27045	4801	1
0	27058	4805	1
0	27097	4810	1
0	27126	4816	7
0	27132	4817	7
0	27139	4818	8
0	27146	4819	8
0	27155	4820	7
0	27163	4821	6
0	27169	4822	5
0	27176	4823	5
0	27182	4824	2
0	27198	4827	1
0	27232	4833	6
0	27242	4834	6
0	27251	4835	2
0	27257	4836	2
0	27278	4841	1
0	27284	4842	2
0	27292	4843	1
0	27301	4844	2
0	27314	4845	1
0	27356	4853	1
0	27384	4859	2
0	27399	4864	1
0	27409	4865	1
0	27419	4866	1
0	27429	4867	2
0	27483	4874	1
0	27507	4878	1
0	27523	4881	1
0	27530	4882	1
0	27547	4887	1
0	27568	4893	4
0	27575	4894	1
0	27582	4895	1
0	27595	4899	1
0	27622	4906	1
0	27645	4911	1
0	27651	4912	2
0	27676	4916	1
0	27740	4928	1
0	27767	4936	1
0	27796	4942	7
0	27807	4943	7
0	27817	4944	3
0	27824	4945	2
0	27830	4946	2
0	27837	4947	1
0	27846	4949	1
0	27865	4953	1
0	27871	4954	2
0	27893	4957	1
0	27924	4963	7
0	27934	4964	6
0	27949	4966	1
0	27956	4967	2
0	27962	4968	3
0	27971	4969	4
0	27983	4970	4
0	27994	4971	2
0	28016	4976	1
0	28051	4986	1
0	28080	4992	2
0	28086	4993	2
0	28106	4997	1
0	28123	4999	1
1	2435	404	1
1	2435	404	0
1	2436	404	1
1	2446	405	0
1	2468	408	1
1	2468	408	0
1	2469	408	1
1	2475	409	0
1	2535	426	1
1	2535	426	0
1	2560	430	1
1	2560	430	0
1	2587	433	1
1	2587	433	0
1	2604	435	1
1	2604	435	0
1	2605	435	1
1	2615	436	0
1	2643	441	1
1	2643	441	0
1	2678	445	1
1	2678	445	0
1	2708	450	1
1	2708	450	0
1	2732	457	1
1	2732	457	0
1	2745	459	1
1	2745	459	0
1	2774	465	1
1	2774	465	0
1	2785	468	1
1	2785	468	0
1	2786	468	1
1	2792	469	0
1	2797	470	1
1	2799	470	0
1	2804	471	1
1	2805	471	2
1	2807	471	1
1	2813	472	0
1	2818	473	1
1	2822	473	0
1	2837	475	1
1	2837	475	0
1	2862	479	1
1	2862	479	0
1	2867	480	1
1	2869	480	0
1	2892	486	1
1	2892	486	0
1	2893	486	1
1	2899	487	0
1	2915	490	1
1	2915	490	0
1	2962	501	1
1	2962	501	0
1	2973	502	1
1	2975	502	0
1	2984	503	1
1	2986	503	0
1	3003	505	1
1	3003	505	0
1	3004	505	1
1	3012	506	0
1	3017	507	1
1	3018	507	2
1	3020	507	1
1	3026	508	0
1	3050	513	1
1	3057	514	0
1	3064	515	1
1	3067	515	0
1	3104	522	1
1	3104	522	0
1	3119	524	1
1	3119	524	0
1	3143	527	1
1	3143	527	0
1	3153	528	1
1	3154	528	2
1	3157	528	1
1	3168	529	0
1	3210	537	1
1	3210	537	0
1	3219	539	1
1	3219	539	0
1	3258	547	1
1	3258	547	0
1	3265	548	1
1	3272	549	2
1	3289	553	1
1	3290	553	2
1	3295	554	3
1	3296	554	4
1	3298	554	3
1	3306	555	2
1	3316	556	1
1	3326	557	0
1	3353	563	1
1	3353	563	0
1	3395	570	1
1	3395	570	0
1	3429	576	1
1	3429	576	0
1	3456	582	1
1	3456	582	0
1	3494	591	1
1	3494	591	0
1	3495	591	1
1	3510	595	2
1	3523	597	1
1	3528	598	2
1	3530	598	1
1	3536	599	0
1	3545	601	1
1	3545	601	0
1	3554	602	1
1	3557	602	0
1	3566	603	1
1	3570	603	0
1	3601	607	1
1	3601	607	0
1	3616	609	1
1	3616	609	0
1	3621	610	1
1	3623	610	0
1	3654	619	1
1	3654	619	0
1	3712	627	1
1	3712	627	0
1	3727	629	1
1	3727	629	0
1	3748	632	1
1	3748	632	0
1	3757	634	1
1	3757	634	0
1	3758	634	1
1	3763	635	2
1	3766	635	1
1	3776	636	0
1	3791	641	1
1	3791	641	0
1	3814	646	1
1	3814	646	0
1	3842	652	1
1	3842	652	0
1	3871	656	1
1	3871	656	0
1	3893	661	1
1	3899	662	0
1	3920	666	1
1	3920	666	0
1	3959	672	1
1	3959	672	0
1	3968	674	1
1	3968	674	0
1	3980	676	1
1	3980	676	0
1	3981	676	1
1	3990	677	0
1	3997	678	1
1	4001	678	0
1	4006	679	1
1	4008	679	0
1	4021	683	1
1	4021	683	0
1	4073	694	1
1	4073	694	0
1	4081	695	1
1	4091	698	2
1	4102	700	1
1	4109	701	0
1	4122	703	1
1	4122	703	0
1	4127	704	1
1	4129	704	0
1	4134	705	1
1	4137	705	0
1	4144	706	1
1	4148	706	0
1	4153	707	1
1	4155	707	0
1	4160	708	1
1	4162	708	0
1	4184	714	1
1	4184	714	0
1	4202	718	1
1	4202	718	0
1	4269	732	1
1	4269	732	0
1	4314	741	1
1	4314	741	0
1	4327	743	1
1	4327	743	0
1	4346	745	1
1	4346	745	0
1	4364	747	1
1	4364	747	0
1	4380	750	1
1	4380	750	0
1	4398	753	1
1	4398	753	0
1	4435	759	1
1	4435	759	0
1	4444	761	1
1	4444	761	0
1	4464	766	1
1	4464	766	0
1	4515	776	1
1	4515	776	0
1	4524	778	1
1	4524	778	0
1	4532	779	1
1	4538	779	0
1	4620	796	1
1	4620	796	0
1	4654	801	1
1	4654	801	0
1	4676	804	1
1	4676	804	0
1	4694	806	1
1	4694	806	0
1	4754	814	1
1	4754	814	0
1	4755	814	1
1	4762	815	2
1	4767	815	1
1	4777	816	0
1	4799	819	1
1	4813	821	2
1	4814	821	3
1	4820	822	2
1	4828	823	3
1	4829	823	4
1	4831	823	3
1	4838	824	4
1	4840	824	3
1	4847	825	2
1	4857	826	1
1	4863	827	0
1	4897	839	1
1	4897	839	0
1	4951	851	1
1	4951	851	0
1	4952	851	1
1	4957	852	2
1	4960	852	1
1	4970	853	0
1	4987	857	1
1	5001	859	0
1	5012	861	1
1	5012	861	0
1	5017	862	1
1	5019	862	0
1	5040	866	1
1	5040	866	0
1	5066	873	1
1	5066	873	0
1	5092	877	1
1	5092	877	0
1	5112	879	1
1	5112	879	0
1	5129	882	1
1	5129	882	0
1	5137	883	1
1	5139	883	0
1	5153	885	1
1	5153	885	0
1	5206	895	1
1	5206	895	0
1	5211	896	1
1	5213	896	0
1	5218	897	1
1	5220	897	0
1	5232	899	1
1	5232	899	0
1	5243	900	1
1	5245	900	0
1	5264	904	1
1	5264	904	0
1	5277	908	1
1	5277	908	0
1	5282	909	1
1	5284	909	0
1	5305	913	1
1	5305	913	0
1	5363	922	1
1	5363	922	0
1	5370	923	1
1	5386	926	2
1	5394	928	1
1	5395	928	2
1	5396	928	3
1	5403	929	2
1	5413	930	1
1	5418	931	2
1	5420	931	1
1	5426	932	0
1	5437	935	1
1	5437	935	0
1	5445	936	1
1	5449	936	0
1	5473	939	1
1	5473	939	0
1	5484	941	1
1	5484	941	0
1	5489	942	1
1	5491	942	0
1	5513	947	1
1	5522	948	0
1	5542	950	1
1	5542	950	0
1	5543	950	1
1	5553	951	0
1	5566	954	1
1	5566	954	0
1	5579	958	1
1	5579	958	0
1	5584	959	1
1	5587	959	0
1	5617	963	1
1	5617	963	0
1	5628	965	1
1	5628	965	0
1	5633	966	1
1	5636	966	0
1	5668	971	1
1	5668	971	0
1	5683	973	1
1	5698	977	0
1	5699	977	1
1	5704	978	2
1	5706	978	1
1	5712	979	0
1	5732	984	1
1	5732	984	0
1	5756	991	1
1	5756	991	0
1	5757	991	1
1	5767	992	0
1	5776	993	1
1	5778	993	0
1	5785	994	1
1	5787	994	0
1	5801	997	1
1	5801	997	0
1	5836	1006	1
1	5836	1006	0
1	5894	1018	1
1	5894	1018	0
1	5916	1023	1
1	5916	1023	0
1	5947	1031	1
1	5947	1031	0
1	5952	1032	1
1	5953	1032	2
1	5956	1032	1
1	5967	1033	0
1	5984	1035	1
1	5984	1035	0
1	6002	1037	1
1	6002	1037	0
1	6023	1044	1
1	6023	1044	0
1	6028	1045	1
1	6033	1045	0
1	6048	1047	1
1	6048	1047	0
1	6098	1056	1
1	6098	1056	0
1	6099	1056	1
1	6107	1057	2
1	6110	1057	1
1	6119	1058	2
1	6121	1058	1
1	6128	1059	2
1	6130	1059	1
1	6137	1060	0
1	6144	1061	1
1	6148	1061	0
1	6159	1064	1
1	6159	1064	0
1	6168	1066	1
1	6168	1066	0
1	6184	1070	1
1	6184	1070	0
1	6215	1077	1
1	6215	1077	0
1	6243	1082	1
1	6253	1083	0
1	6254	1083	1
1	6255	1083	2
1	6264	1084	3
1	6266	1084	2
1	6276	1085	1
1	6284	1086	0
1	6289	1087	1
1	6291	1087	0
1	6296	1088	1
1	6298	1088	0
1	6317	1091	1
1	6317	1091	0
1	6332	1095	1
1	6332	1095	0
1	6337	1096	1
1	6339	1096	0
1	6360	1100	1
1	6360	1100	0
1	6381	1105	1
1	6389	1106	0
1	6425	1112	1
1	6425	1112	0
1	6441	1115	1
1	6441	1115	0
1	6468	1118	1
1	6468	1118	0
1	6495	1124	1
1	6495	1124	0
1	6522	1127	1
1	6522	1127	0
1	6531	1128	1
1	6533	1128	0
1	6565	1132	1
1	6565	1132	0
1	6623	1145	1
1	6623	1145	0
1	6645	1151	1
1	6645	1151	0
1	6650	1152	1
1	6673	1157	0
1	6724	1170	1
1	6724	1170	0
1	6729	1171	1
1	6733	1171	0
1	6740	1172	1
1	6744	1172	0
1	6762	1175	1
1	6762	1175	0
1	6793	1183	1
1	6793	1183	0
1	6811	1187	1
1	6811	1187	0
1	6831	1191	1
1	6831	1191	0
1	6861	1196	1
1	6861	1196	0
1	6929	1210	1
1	6929	1210	0
1	6937	1211	1
1	6969	1215	2
1	6980	1216	1
1	6981	1216	2
1	6990	1217	3
1	6992	1217	2
1	7003	1218	1
1	7013	1219	0
1	7036	1223	1
1	7036	1223	0
1	7041	1224	1
1	7044	1224	0
1	7061	1226	1
1	7061	1226	0
1	7062	1226	1
1	7074	1227	0
1	7092	1229	1
1	7092	1229	0
1	7093	1229	1
1	7102	1230	2
1	7107	1230	1
1	7116	1231	2
1	7126	1232	3
1	7155	1236	2
1	7156	1236	3
1	7157	1236	4
1	7167	1237	3
1	7176	1238	4
1	7179	1238	3
1	7191	1239	2
1	7201	1240	1
1	7210	1241	2
1	7212	1241	1
1	7219	1242	2
1	7220	1242	3
1	7222	1242	2
1	7228	1243	1
1	7235	1244	0
1	7250	1247	1
1	7250	1247	0
1	7290	1255	1
1	7290	1255	0
1	7306	1258	1
1	7306	1258	0
1	7330	1264	1
1	7330	1264	0
1	7349	1271	1
1	7349	1271	0
1	7350	1271	1
1	7356	1272	0
1	7389	1277	1
1	7389	1277	0
1	7413	1283	1
1	7413	1283	0
1	7425	1285	1
1	7425	1285	0
1	7455	1289	1
1	7455	1289	0
1	7475	1291	1
1	7475	1291	0
1	7493	1293	1
1	7520	1297	0
1	7538	1300	1
1	7538	1300	0
1	7567	1307	1
1	7567	1307	0
1	7583	1310	1
1	7583	1310	0
1	7604	1313	1
1	7604	1313	0
1	7643	1324	1
1	7643	1324	0
1	7666	1327	1
1	7666	1327	0
1	7683	1330	1
1	7683	1330	0
1	7703	1335	1
1	7703	1335	0
1	7712	1336	1
1	7713	1336	2
1	7715	1336	1
1	7739	1339	2
1	7754	1342	1
1	7760	1343	0
1	7765	1344	1
1	7767	1344	0
1	7786	1351	1
1	7786	1351	0
1	7795	1353	1
1	7795	1353	0
1	7803	1354	1
1	7805	1354	0
1	7842	1364	1
1	7842	1364	0
1	7856	1366	1
1	7856	1366	0
1	7861	1367	1
1	7863	1367	0
1	7884	1373	1
1	7884	1373	0
1	7885	1373	1
1	7901	1376	2
1	7909	1379	1
1	7916	1380	0
1	7923	1381	1
1	7927	1381	0
1	7976	1393	1
1	7976	1393	0
1	7981	1394	1
1	7983	1394	0
1	7992	1396	1
1	7992	1396	0
1	7997	1397	1
1	8000	1397	0
1	8068	1414	1
1	8068	1414	0
1	8077	1416	1
1	8077	1416	0
1	8082	1417	1
1	8084	1417	0
1	8099	1421	1
1	8107	1423	0
1	8126	1426	1
1	8126	1426	0
1	8133	1427	1
1	8136	1427	0
1	8143	1428	1
1	8147	1428	0
1	8152	1429	1
1	8153	1429	2
1	8154	1429	3
1	8156	1429	2
1	8162	1430	1
1	8170	1431	0
1	8190	1433	1
1	8190	1433	0
1	8191	1433	1
1	8204	1434	2
1	8206	1434	1
1	8216	1435	0
1	8232	1437	1
1	8239	1438	2
1	8240	1438	3
1	8261	1441	2
1	8274	1442	1
1	8284	1443	0
1	8293	1444	1
1	8295	1444	0
1	8304	1445	1
1	8307	1445	0
1	8326	1447	1
1	8326	1447	0
1	8336	1448	1
1	8339	1448	0
1	8356	1450	1
1	8356	1450	0
1	8386	1458	1
1	8386	1458	0
1	8393	1459	1
1	8395	1459	0
1	8400	1460	1
1	8408	1463	2
1	8414	1465	1
1	8424	1466	0
1	8456	1470	1
1	8456	1470	0
1	8466	1471	1
1	8468	1471	0
1	8475	1472	1
1	8477	1472	0
1	8509	1479	1
1	8509	1479	0
1	8520	1480	1
1	8523	1480	0
1	8540	1482	1