version 3
run Experimentos-366-20260514-09:21:13-5251
attr configname Experimentos
attr datetime 20260514-09:21:13
attr datetimef 20260514-092113
attr experiment Experimentos
attr inifile TwoQueues.ini
attr iterationvars "$p=0.6, $q=0.3, $Y=20, $m=4"
attr iterationvarsd p=0.6/q=0.3/Y=20/m=4
attr iterationvarsf p=0.6,q=0.3,Y=20,m=4-
attr measurement "$p=0.6, $q=0.3, $Y=20, $m=4"
attr network TwoQueues
attr processid 5251
attr repetition 6
attr replication #6
attr resultdir results
attr runnumber 366
attr seedset 366
itervar Y 20
itervar m 4
itervar p 0.6
itervar q 0.3
config description "Barrido completo de parámetros Proyecto 12"
config **.source1.p 0.6
config **.source1.q 0.2
config **.source2.p 0.6
config **.source2.q 0.3
config **.serverWithMaintenance.Y 20
config **.serverWithMaintenance.m 4
config network TwoQueues
config cpu-time-limit 5000s
config sim-time-limit 5000s
config warmup-period 400s
config repeat 20
config output-scalar-file results/Experimentos-p=0.6,q=0.3,Y=20,m=4--#6.sca
config output-vector-file results/Experimentos-p=0.6,q=0.3,Y=20,m=4--#6.vec
config **.vector-recording true

vector 0 TwoQueues.serverWithMaintenance residenceTime2:vector ETV
attr recordingmode vector
attr source delay2
attr title "Residence Time Class 2"
vector 1 TwoQueues.queue2 queueLengthStats:vector ETV
attr recordingmode vector
attr source qlen
attr title "Average Queue Length"
vector 2 TwoQueues.queue1 queueLengthStats:vector ETV
attr recordingmode vector
attr source qlen
attr title "Average Queue Length"
vector 3 TwoQueues.server residenceTime1:vector ETV
attr recordingmode vector
attr source delay1
attr title "Residence Time Class 1"
vector 4 TwoQueues.server throughputStats1:vector ETV
attr recordingmode vector
attr source throughput1
attr title "Throughput Class 1"
0	2562	407	1
0	2576	408	1
0	2587	409	2
0	2606	412	1
0	2612	413	2
0	2623	416	1
0	2643	420	1
0	2678	425	5
0	2684	426	4
0	2691	427	1
0	2701	429	1
0	2711	430	2
0	2719	431	2
0	2726	432	1
0	2733	433	1
0	2751	436	1
0	2776	441	1
0	2799	444	1
0	2816	446	1
0	2833	448	1
0	2859	452	1
0	2870	453	1
0	2909	463	1
0	2924	464	2
0	2935	465	2
0	2949	466	2
0	2966	468	1
0	3005	473	5
0	3023	475	1
0	3042	477	1
0	3053	478	1
0	3064	479	1
0	3103	484	1
0	3115	486	1
0	3122	487	1
0	3129	488	1
0	3173	495	1
0	3190	497	1
0	3211	499	1
0	3222	500	1
0	3241	502	1
0	3273	506	1
0	3310	511	1
0	3322	512	1
0	3346	515	1
0	3373	520	1
0	3398	524	1
0	3433	530	1
0	3522	542	1
0	3546	545	1
0	3604	556	1
0	3613	557	2
0	3625	559	1
0	3641	561	1
0	3664	567	1
0	3677	568	2
0	3687	569	2
0	3717	573	1
0	3727	574	1
0	3745	577	1
0	3781	582	1
0	3838	590	1
0	3870	594	1
0	3888	596	1
0	3905	599	1
0	3925	601	1
0	3964	607	1
0	3985	612	6
0	3991	613	2
0	4069	626	1
0	4079	627	1
0	4123	633	1
0	4185	644	1
0	4191	645	2
0	4197	646	3
0	4266	657	1
0	4302	662	1
0	4311	663	2
0	4320	665	1
0	4345	670	1
0	4366	673	1
0	4432	685	1
0	4461	689	1
0	4505	695	1
0	4516	696	1
0	4524	697	2
0	4531	698	1
0	4564	703	2
0	4570	704	3
0	4576	705	3
0	4587	707	1
0	4608	709	1
0	4620	710	1
0	4642	713	1
0	4658	716	1
0	4680	722	1
0	4689	724	1
0	4696	725	1
0	4713	727	1
0	4730	729	1
0	4736	730	2
0	4747	731	1
0	4785	737	1
0	4796	738	1
0	4899	755	1
0	4910	756	1
0	4925	757	1
0	4964	762	6
0	4975	763	2
0	4989	766	1
0	4998	768	1
0	5005	769	1
0	5032	775	1
0	5049	781	1
0	5058	783	1
0	5074	785	1
0	5087	786	1
0	5119	790	1
0	5190	800	1
0	5203	801	1
0	5213	802	2
0	5254	807	1
0	5263	808	2
0	5308	817	1
0	5333	823	1
0	5351	825	1
0	5373	828	1
0	5393	833	2
0	5404	834	2
0	5420	836	1
0	5446	844	1
0	5455	846	1
0	5471	848	1
0	5498	852	1
0	5528	856	1
0	5539	857	1
0	5606	870	1
0	5617	871	1
0	5631	873	1
0	5664	880	1
0	5738	890	1
0	5785	896	1
0	5804	898	1
0	5821	900	1
0	5848	903	1
0	5860	904	1
0	5871	905	1
0	5905	910	4
0	5911	911	3
0	5918	912	1
0	5925	913	1
0	5935	914	1
0	5947	915	1
0	5959	916	1
0	5974	919	1
0	6000	922	1
0	6018	926	1
0	6048	930	1
0	6061	931	2
0	6071	932	2
0	6104	936	1
0	6143	941	1
0	6176	946	1
0	6186	948	1
0	6192	949	2
0	6217	955	1
0	6229	956	1
0	6260	961	6
0	6271	962	4
0	6292	966	1
0	6346	973	1
0	6357	974	2
0	6367	975	2
0	6377	976	1
0	6422	987	1
0	6447	991	1
0	6458	992	1
0	6470	993	1
0	6489	996	1
0	6512	1001	1
0	6524	1003	1
0	6533	1004	2
0	6545	1005	1
0	6614	1014	1
0	6631	1016	1
0	6687	1025	1
0	6760	1036	1
0	6800	1041	4
0	6810	1042	1
0	6817	1043	1
0	6846	1049	1
0	6908	1057	1
0	6961	1064	1
0	6991	1070	1
0	7010	1073	1
0	7032	1077	1
0	7084	1088	1
0	7094	1089	1
0	7117	1098	1
0	7144	1102	1
0	7166	1105	1
0	7180	1107	1
0	7207	1112	1
0	7228	1115	1
0	7252	1118	1
0	7259	1119	1
0	7273	1121	1
0	7304	1126	3
0	7314	1127	3
0	7323	1128	3
0	7331	1129	1
0	7337	1130	2
0	7364	1136	1
0	7372	1137	1
0	7381	1138	2
0	7434	1145	1
0	7462	1149	1
0	7488	1152	1
0	7500	1154	1
0	7540	1159	1
0	7571	1163	1
0	7621	1169	1
0	7638	1171	1
0	7649	1172	1
0	7669	1174	1
0	7701	1181	1
0	7711	1182	1
0	7733	1187	4
0	7742	1188	2
0	7751	1189	1
0	7758	1190	1
0	7768	1192	1
0	7778	1193	2
0	7789	1194	1
0	7800	1196	1
0	7822	1201	1
0	7842	1205	1
0	7853	1206	1
0	7873	1208	1
0	7897	1211	1
0	7923	1215	1
0	7934	1218	1
0	7947	1222	1
0	7965	1226	1
0	7972	1227	1
0	7981	1229	1
0	8015	1234	1
0	8057	1239	6
0	8067	1240	7
0	8076	1241	6
0	8085	1243	1
0	8095	1244	1
0	8104	1245	1
0	8126	1249	1
0	8146	1251	1
0	8172	1254	1
0	8200	1258	1
0	8222	1264	1
0	8266	1270	1
0	8287	1272	1
0	8299	1273	1
0	8338	1278	1
0	8358	1281	1
0	8389	1289	1
0	8403	1292	1
0	8414	1293	1
0	8425	1294	2
0	8445	1299	3
0	8454	1300	4
0	8469	1301	3
0	8481	1302	1
0	8528	1309	1
0	8585	1317	1
0	8596	1318	2
0	8607	1319	3
0	8616	1320	3
0	8625	1321	3
0	8634	1322	1
0	8646	1324	1
0	8678	1329	1
0	8699	1332	1
0	8713	1334	1
0	8746	1339	1
0	8760	1340	1
0	8786	1343	1
0	8830	1349	1
0	8840	1350	1
0	8870	1355	4
0	8881	1356	2
0	8944	1365	1
0	8953	1366	2
0	8960	1367	1
0	8967	1368	1
0	8974	1369	1
0	9000	1372	1
0	9012	1373	2
0	9024	1374	2
0	9034	1375	2
0	9054	1377	1
0	9076	1379	1
0	9087	1380	1
0	9127	1385	1
0	9138	1386	2
0	9152	1387	3
0	9163	1388	3
0	9173	1389	3
0	9183	1390	4
0	9217	1395	2
0	9227	1396	1
0	9241	1399	1
0	9248	1400	2
0	9262	1401	2
0	9273	1402	2
0	9284	1403	1
0	9311	1407	1
0	9347	1412	1
0	9354	1413	2
0	9364	1414	2
0	9372	1415	2
0	9402	1421	1
0	9411	1422	2
0	9464	1429	1
0	9511	1437	1
0	9518	1438	1
0	9526	1439	1
0	9532	1440	2
0	9542	1441	1
0	9571	1446	4
0	9579	1447	2
0	9586	1448	2
0	9592	1449	3
0	9599	1450	3
0	9605	1451	2
0	9612	1452	1
0	9619	1453	1
0	9627	1454	1
0	9633	1455	2
0	9640	1456	1
0	9732	1471	1
0	9749	1473	1
0	9767	1477	1
0	9790	1481	1
0	9831	1488	1
0	9837	1489	2
0	9843	1490	3
0	9857	1492	1
0	9868	1493	1
0	9888	1498	6
0	9897	1499	4
0	9952	1507	1
0	9970	1509	1
0	9991	1511	1
0	10001	1512	2
0	10010	1513	3
0	10032	1516	1
0	10043	1517	2
0	10097	1525	1
0	10166	1536	1
0	10177	1537	1
0	10188	1538	1
0	10203	1541	1
0	10212	1542	2
0	10220	1543	3
0	10234	1545	1
0	10250	1547	1
0	10270	1550	1
0	10276	1551	2
0	10294	1556	5
0	10330	1562	1
0	10341	1563	2
0	10351	1564	2
0	10363	1565	1
0	10375	1566	2
0	10391	1568	1
0	10423	1573	1
0	10433	1574	2
0	10444	1575	3
0	10455	1576	2
0	10480	1579	1
0	10494	1581	1
0	10504	1582	1
0	10520	1586	1
0	10561	1594	1
0	10573	1595	1
0	10584	1596	1
0	10614	1601	1
0	10644	1607	1
0	10685	1612	3
0	10697	1613	2
0	10707	1614	3
0	10713	1615	3
0	10725	1616	4
0	10735	1617	4
0	10747	1618	3
0	10760	1619	2
0	10771	1620	2
0	10794	1623	1
0	10838	1630	1
0	10849	1631	1
0	10855	1632	2
0	10873	1636	1
0	10884	1639	1
0	10909	1641	1
0	10944	1646	1
0	10961	1648	1
0	10983	1651	1
0	10995	1653	1
0	11050	1659	1
0	11093	1664	1
0	11132	1669	1
0	11164	1673	1
0	11176	1674	1
0	11208	1678	1
0	11219	1679	2
0	11245	1682	1
0	11262	1684	1
0	11286	1687	1
0	11330	1693	1
0	11340	1694	1
0	11352	1695	1
0	11390	1700	1
0	11402	1701	1
0	11421	1703	1
0	11454	1707	1
0	11488	1711	1
0	11500	1712	1
0	11524	1715	1
0	11548	1720	2
0	11564	1723	1
0	11601	1729	1
0	11608	1730	1
0	11619	1731	1
0	11639	1734	1
0	11670	1740	1
0	11691	1744	1
0	11707	1746	1
0	11721	1747	1
0	11751	1753	1
0	11765	1754	1
0	11777	1755	1
0	11795	1757	1
0	11806	1758	1
0	11827	1761	1
0	11839	1762	1
0	11852	1763	1
0	11871	1765	1
0	11901	1773	1
0	11932	1778	4
0	11946	1780	1
0	11958	1781	1
0	12014	1790	1
0	12051	1796	1
0	12062	1798	1
0	12074	1799	1
0	12136	1809	1
0	12160	1812	1
0	12182	1816	1
0	12191	1817	2
0	12265	1826	1
0	12276	1827	1
0	12288	1828	1
0	12301	1829	1
0	12322	1831	1
0	12352	1835	1
0	12363	1836	1
0	12392	1839	1
0	12418	1842	1
0	12468	1847	2
0	12573	1861	1
0	12591	1863	1
0	12603	1864	1
0	12614	1865	2
0	12624	1866	2
0	12641	1868	1
0	12704	1877	1
0	12715	1878	1
0	12751	1882	1
0	12763	1883	1
0	12806	1888	1
0	12825	1890	1
0	12836	1891	2
0	12846	1892	3
0	12895	1898	1
0	12912	1900	1
0	12923	1901	1
0	13022	1915	1
0	13073	1922	1
0	13107	1927	6
0	13113	1928	7
0	13119	1929	4
0	13133	1931	1
0	13162	1935	1
0	13180	1937	1
0	13190	1938	2
0	13229	1944	1
0	13263	1950	1
0	13326	1958	1
0	13343	1960	1
0	13373	1965	1
0	13396	1969	1
0	13408	1970	1
0	13436	1973	1
0	13488	1982	1
0	13508	1985	1
0	13531	1990	1
0	13553	1994	1
0	13571	1996	1
0	13608	2001	6
0	13621	2002	3
0	13633	2003	3
0	13643	2004	3
0	13653	2005	3
0	13659	2006	2
0	13670	2009	1
0	13677	2010	1
0	13685	2011	1
0	13695	2012	2
0	13706	2013	1
0	13768	2023	1
0	13779	2026	1
0	13804	2029	1
0	13843	2034	1
0	13868	2037	1
0	13880	2038	1
0	13890	2039	1
0	13907	2044	1
0	13926	2047	1
0	13954	2052	5
0	13963	2053	5
0	13975	2054	4
0	13983	2055	2
0	13992	2057	1
0	14008	2059	1
0	14035	2062	1
0	14126	2075	1
0	14158	2078	1
0	14169	2079	1
0	14187	2081	1
0	14230	2087	1
0	14269	2092	1
0	14281	2093	2
0	14291	2094	2
0	14322	2098	1
0	14338	2100	1
0	14356	2103	1
0	14366	2104	1
0	14378	2105	1
0	14414	2110	4
0	14427	2113	1
0	14444	2116	1
0	14455	2117	1
0	14479	2120	1
0	14504	2124	1
0	14531	2127	1
0	14543	2128	1
0	14566	2131	1
0	14573	2132	1
0	14605	2137	1
0	14628	2139	1
0	14661	2143	1
0	14672	2144	2
0	14684	2145	1
0	14694	2146	2
0	14705	2147	1
0	14744	2152	1
0	14756	2153	1
0	14783	2156	1
0	14823	2161	6
0	14833	2162	7
0	14842	2163	5
0	14848	2164	4
0	14855	2165	1
0	14897	2172	1
0	14930	2176	1
0	14970	2184	1
0	15000	2187	1
0	15043	2193	1
0	15113	2204	1
0	15136	2207	1
0	15154	2211	1
0	15209	2222	1
0	15216	2223	1
0	15226	2224	1
0	15235	2225	1
0	15283	2232	1
0	15303	2234	1
0	15319	2235	1
0	15355	2240	6
0	15416	2250	1
0	15439	2255	1
0	15450	2256	1
0	15470	2262	1
0	15484	2264	1
0	15529	2274	1
0	15540	2277	1
0	15564	2285	1
0	15580	2287	1
0	15589	2289	1
0	15596	2290	1
0	15629	2298	1
0	15658	2306	1
0	15667	2308	1
0	15683	2310	1
0	15698	2313	1
0	15709	2314	2
0	15717	2315	2
0	15723	2316	3
0	15747	2321	3
0	15758	2322	4
0	15794	2326	1
0	15808	2327	1
0	15818	2328	2
0	15829	2329	1
0	15849	2331	1
0	15883	2338	1
0	15891	2339	1
0	15897	2340	2
0	15904	2341	1
0	15931	2346	1
0	15969	2351	1
0	15987	2355	1
0	15994	2356	1
0	16005	2359	1
0	16012	2360	1
0	16040	2369	1
0	16060	2374	1
0	16095	2380	1
0	16136	2385	3
0	16159	2388	1
0	16166	2389	1
0	16184	2392	1
0	16194	2393	1
0	16205	2395	1
0	16216	2396	1
0	16226	2397	2
0	16237	2398	1
0	16246	2399	1
0	16262	2402	1
0	16327	2412	1
0	16375	2418	1
0	16413	2423	1
0	16423	2424	2
0	16435	2426	1
0	16501	2436	1
0	16507	2437	2
0	16524	2439	1
0	16542	2441	1
0	16575	2448	1
0	16592	2454	1
0	16601	2456	1
0	16608	2457	1
0	16619	2458	1
0	16643	2463	1
0	16654	2464	1
0	16681	2469	1
0	16699	2471	1
0	16721	2476	1
0	16731	2478	1
0	16737	2479	2
0	16753	2482	1
0	16806	2490	1
0	16818	2492	1
0	16853	2497	1
0	16870	2499	1
0	16882	2500	1
0	16891	2501	2
0	16905	2503	1
0	16925	2508	4
0	16950	2511	1
0	16980	2515	1
0	16999	2522	1
0	17017	2526	1
0	17030	2530	1
0	17041	2532	1
0	17074	2536	1
0	17095	2539	1
0	17120	2542	1
0	17137	2544	1
0	17171	2548	1
0	17183	2549	2
0	17245	2557	1
0	17257	2558	2
0	17289	2562	1
0	17300	2563	2
0	17310	2564	2
0	17320	2565	1
0	17332	2567	1
0	17360	2572	1
0	17380	2577	1
0	17398	2579	1
0	17419	2581	1
0	17477	2589	1
0	17488	2590	1
0	17527	2596	1
0	17558	2600	1
0	17590	2607	1
0	17614	2614	1
0	17648	2618	1
0	17666	2620	1
0	17678	2621	2
0	17696	2623	1
0	17708	2624	1
0	17734	2627	1
0	17747	2628	2
0	17771	2631	1
0	17829	2639	1
0	17935	2657	1
0	17957	2662	5
0	17964	2663	2
0	17970	2664	2
0	17977	2665	1
0	17984	2666	1
0	17991	2667	1
0	18004	2669	1
0	18014	2670	2
0	18054	2676	1
0	18061	2677	1
0	18092	2681	1
0	18143	2688	1
0	18150	2689	1
0	18175	2694	1
0	18189	2697	1
0	18201	2698	2
0	18210	2699	2
0	18267	2710	1
0	18289	2716	1
0	18307	2720	1
0	18343	2732	1
0	18349	2733	2
0	18404	2740	1
0	18448	2746	1
0	18459	2747	1
0	18472	2748	1
0	18481	2749	2
0	18507	2754	1
0	18514	2755	2
0	18520	2756	2
0	18536	2759	1
0	18545	2761	1
0	18558	2765	1
0	18568	2767	1
0	18574	2768	2
0	18602	2772	1
0	18648	2778	1
0	18665	2780	1
0	18675	2781	1
0	18778	2800	1
0	18814	2805	4
0	18825	2806	4
0	18836	2807	4
0	18845	2808	3
0	18853	2809	3
0	18863	2810	4
0	18871	2811	2
0	18918	2817	1
0	18959	2825	1
0	18966	2826	1
0	18982	2828	1
0	18996	2829	1
0	19007	2830	2
0	19026	2832	1
0	19041	2833	2
0	19066	2836	1
0	19077	2837	1
0	19088	2838	1
0	19110	2840	1
0	19121	2841	2
0	19165	2846	6
0	19177	2847	5
0	19188	2848	2
0	19201	2849	1
0	19213	2850	2
0	19224	2851	2
0	19234	2852	2
0	19251	2854	1
0	19263	2855	1
0	19281	2858	1
0	19290	2860	1
0	19299	2861	1
0	19305	2862	2
0	19314	2863	3
0	19336	2866	1
0	19375	2875	1
0	19397	2881	1
0	19405	2882	1
0	19412	2883	2
0	19426	2884	2
0	19469	2889	5
0	19481	2890	6
0	19492	2891	6
0	19502	2892	3
0	19521	2894	1
0	19606	2907	1
0	19615	2908	2
0	19644	2914	1
0	19651	2915	1
0	19661	2916	1
0	19674	2918	1
0	19686	2920	1
0	19697	2923	1
0	19730	2927	1
0	19774	2934	1
0	19800	2937	1
0	19837	2942	1
0	19855	2947	1
0	19875	2950	1
0	19911	2955	1
0	19931	2960	5
0	19937	2961	5
0	19946	2962	6
0	19957	2963	6
0	19965	2964	6
0	19973	2965	1
0	19979	2966	2
0	19990	2967	1
0	20003	2968	1
0	20014	2969	1
0	20089	2982	1
0	20103	2983	1
0	20133	2987	1
0	20184	2995	1
0	20190	2996	2
0	20196	2997	3
0	20205	2999	1
0	20225	3001	1
0	20256	3005	1
0	20313	3013	1
0	20340	3018	4
0	20346	3019	4
0	20397	3026	1
0	20409	3027	1
0	20426	3029	1
0	20444	3031	1
0	20454	3032	2
0	20487	3036	1
0	20513	3040	1
0	20553	3046	1
0	20576	3048	1
0	20586	3049	2
0	20599	3050	1
0	20609	3051	2
0	20620	3052	1
0	20675	3060	1
0	20719	3066	1
0	20731	3067	1
0	20749	3069	1
0	20849	3087	1
0	20880	3092	5
0	20889	3093	5
0	20897	3094	4
0	20917	3099	1
0	20931	3101	1
0	20956	3106	1
0	20968	3107	1
0	20987	3109	1
0	21015	3113	1
0	21085	3123	1
0	21105	3127	1
0	21115	3128	1
0	21122	3129	1
0	21147	3133	1
0	21173	3137	1
0	21205	3142	1
0	21234	3145	1
0	21273	3150	1
0	21283	3151	2
0	21301	3154	1
0	21342	3159	6
0	21352	3160	2
0	21362	3161	1
0	21414	3172	1
0	21421	3173	1
0	21428	3174	1
0	21450	3180	1
0	21470	3185	1
0	21493	3189	1
0	21500	3190	1
0	21511	3191	1
0	21522	3192	1
0	21536	3194	1
0	21552	3196	1
0	21568	3198	1
0	21590	3200	1
0	21601	3201	1
0	21612	3202	1
0	21623	3203	1
0	21633	3204	1
0	21679	3210	1
0	21698	3212	1
0	21707	3213	2
0	21725	3215	1
0	21737	3216	2
0	21763	3221	1
0	21770	3222	1
0	21785	3225	1
0	21797	3226	2
0	21807	3227	2
0	21820	3228	1
0	21829	3229	2
0	21839	3231	1
0	21845	3232	2
0	21855	3233	1
0	21893	3237	1
0	21905	3238	1
0	21916	3239	2
0	21933	3241	1
0	21962	3244	1
0	22003	3249	2
0	22039	3254	1
0	22077	3258	1
0	22094	3260	1
0	22126	3264	1
0	22158	3268	1
0	22183	3271	1
0	22196	3272	1
0	22226	3275	1
0	22279	3282	1
0	22291	3283	2
0	22302	3284	2
0	22313	3285	3
0	22326	3286	3
0	22337	3287	2
0	22347	3288	3
0	22369	3291	1
0	22386	3297	1
0	22395	3299	1
0	22405	3300	1
0	22442	3305	3
0	22453	3306	2
0	22463	3307	2
0	22486	3310	1
0	22542	3317	1
0	22585	3322	1
0	22610	3325	1
0	22694	3336	1
0	22705	3337	1
0	22733	3340	1
0	22770	3345	1
0	22781	3346	1
0	22829	3352	1
0	22880	3359	1
0	22890	3360	2
0	22911	3362	1
0	22928	3364	1
0	22941	3365	1
0	22985	3371	1
0	23023	3380	1
0	23089	3390	1
0	23115	3393	1
0	23158	3399	1
0	23197	3404	1
0	23209	3405	1
0	23223	3406	1
0	23235	3407	1
0	23246	3408	1
0	23292	3414	1
0	23310	3416	1
0	23351	3421	1
0	23361	3422	2
0	23375	3423	1
0	23456	3441	1
0	23472	3443	1
0	23482	3444	1
0	23491	3446	1
0	23503	3447	1
0	23540	3452	1
0	23569	3459	1
0	23612	3464	5
0	23623	3465	6
0	23634	3466	5
0	23651	3467	1
0	23719	3477	1
0	23737	3479	1
0	23747	3480	2
0	23757	3481	1
0	23781	3487	1
0	23849	3497	1
0	23858	3499	1
0	23901	3507	1
0	23919	3510	1
0	23987	3519	1
0	24020	3523	1
0	24037	3525	1
0	24072	3532	1
0	24106	3538	1
0	24118	3539	1
0	24130	3540	1
0	24170	3545	6
0	24181	3546	6
0	24211	3550	1
0	24279	3563	1
0	24343	3571	1
0	24353	3572	2
0	24393	3576	1
0	24403	3577	2
0	24422	3579	1
0	24432	3580	2
0	24444	3581	1
0	24488	3587	1
0	24500	3588	2
0	24511	3589	2
0	24522	3590	2
0	24533	3591	2
0	24543	3592	2
0	24554	3593	1
0	24564	3594	1
0	24579	3598	1
0	24599	3603	5
0	24606	3604	5
0	24612	3605	2
0	24623	3608	1
0	24641	3612	1
0	24669	3617	1
0	24683	3618	2
0	24694	3619	2
0	24706	3620	1
0	24732	3623	1
0	24802	3633	1
0	24899	3647	1
0	24911	3648	2
0	24923	3649	2
0	24932	3650	2
0	24950	3653	1
0	25024	3666	1
0	25038	3668	1
0	25061	3672	1
0	25077	3675	1
0	25106	3680	2
0	25116	3681	2
0	25126	3682	3
0	25139	3683	1
0	25171	3687	1
0	25194	3690	1
0	25200	3691	2
0	25223	3694	1
0	25249	3698	1
0	25269	3701	1
0	25280	3702	1
0	25307	3705	1
0	25332	3708	1
0	25343	3709	1
0	25387	3716	1
0	25399	3718	1
0	25417	3722	1
0	25426	3724	1
0	25439	3728	1
0	25448	3730	1
0	25487	3735	4
0	25546	3749	1
0	25557	3750	1
0	25584	3753	1
0	25595	3754	1
0	25614	3756	1
0	25627	3757	2
0	25685	3768	1
0	25704	3771	1
0	25745	3778	1
0	25773	3781	1
0	25792	3783	1
0	25802	3784	2
0	25815	3785	3
0	25825	3786	2
0	25844	3788	1
0	25854	3789	2
0	25866	3791	1
0	25881	3796	1
0	25893	3798	1
0	25936	3803	3
0	25977	3807	1
0	25988	3808	1
0	26012	3811	1
0	26042	3815	1
0	26094	3822	1
0	26118	3825	1
0	26176	3837	1
0	26188	3838	1
0	26198	3839	1
0	26210	3841	1
0	26220	3842	2
0	26229	3843	2
0	26241	3844	1
0	26278	3850	1
0	26289	3851	1
0	26310	3855	1
0	26319	3857	1
0	26330	3860	1
0	26346	3862	1
0	26372	3867	2
0	26384	3868	1
0	26394	3869	1
0	26404	3870	1
0	26416	3871	1
0	26441	3875	1
0	26457	3878	1
0	26467	3879	1
0	26524	3889	1
0	26555	3893	1
0	26571	3895	1
0	26578	3896	1
0	26592	3898	1
0	26603	3899	1
0	26614	3900	1
0	26630	3902	1
0	26643	3905	1
0	26653	3906	1
0	26699	3913	1
0	26727	3917	1
0	26765	3922	3
0	26788	3925	1
0	26794	3926	2
0	26830	3932	1
0	26849	3934	1
0	26868	3936	1
0	26879	3937	2
0	26888	3938	2
0	26909	3941	1
0	26922	3944	1
0	26928	3945	2
0	26934	3946	3
0	26986	3955	1
0	26996	3956	2
0	27015	3959	1
0	27057	3965	1
0	27079	3968	1
0	27086	3969	2
0	27092	3970	2
0	27127	3976	1
0	27158	3981	4
0	27183	3985	1
0	27190	3986	1
0	27201	3988	1
0	27244	3996	1
0	27255	3997	2
0	27279	4000	1
0	27286	4001	2
0	27295	4002	2
0	27315	4005	1
0	27327	4007	1
0	27373	4015	1
0	27398	4019	1
0	27410	4021	1
0	27431	4024	1
0	27444	4027	1
0	27457	4028	1
0	27468	4029	2
0	27481	4030	1
0	27503	4035	1
0	27526	4040	5
0	27541	4041	1
0	27557	4042	1
0	27590	4046	1
0	27601	4047	2
0	27652	4054	1
0	27676	4057	1
0	27702	4060	1
0	27720	4063	1
0	27754	4069	1
0	27805	4077	1
0	27822	4079	1
0	27832	4080	1
0	27862	4085	1
0	27871	4086	2
0	27887	4088	1
0	27899	4089	1
0	27911	4091	1
0	27921	4093	1
0	27933	4094	2
0	28010	4110	1
0	28031	4114	1
0	28049	4117	1
0	28094	4123	1
0	28126	4127	1
0	28152	4131	1
0	28170	4134	1
0	28187	4137	1
0	28212	4140	1
0	28222	4141	1
0	28230	4142	1
0	28237	4143	2
0	28244	4144	2
0	28250	4145	2
0	28264	4147	1
0	28274	4149	1
0	28281	4150	2
0	28287	4151	2
0	28319	4158	1
0	28348	4161	1
0	28387	4166	2
0	28401	4167	2
0	28456	4174	1
0	28466	4175	2
0	28478	4176	1
0	28489	4177	1
0	28545	4184	1
0	28568	4187	1
0	28624	4196	1
0	28649	4199	1
0	28659	4200	2
0	28708	4206	1
0	28718	4207	2
0	28729	4208	1
0	28759	4213	1
0	28782	4216	1
0	28792	4217	2
0	28811	4219	1
0	28821	4220	1
0	28830	4222	1
0	28848	4227	1
0	28865	4230	1
0	28893	4233	1
0	28987	4247	1
0	29022	4251	1
0	29056	4255	1
0	29079	4258	1
0	29107	4261	1
0	29124	4263	1
0	29160	4267	1
0	29171	4268	2
0	29184	4269	2
0	29195	4270	2
0	29206	4271	3
0	29216	4272	3
0	29228	4273	1
0	29246	4275	1
0	29257	4276	2
0	29267	4277	2
0	29273	4278	2
0	29300	4283	5
0	29309	4284	6
0	29316	4285	5
0	29322	4286	5
0	29328	4287	5
0	29334	4288	4
0	29349	4293	1
0	29410	4306	1
0	29430	4311	1
0	29447	4314	1
0	29495	4322	1
0	29529	4326	1
0	29541	4327	1
0	29551	4328	2
0	29565	4330	1
0	29592	4333	1
0	29603	4334	1
0	29613	4335	1
0	29642	4340	1
0	29653	4341	1
0	29687	4346	5
0	29696	4347	5
0	29705	4348	1
0	29716	4349	1
0	29753	4355	1
0	29789	4360	1
0	29796	4361	1
0	29813	4363	1
0	29861	4369	1
0	29871	4370	2
0	29913	4377	1
0	29923	4378	1
0	29934	4380	1
0	29944	4381	1
0	29953	4382	1
0	29977	4388	1
0	30011	4394	1
0	30036	4397	1
0	30046	4398	2
0	30056	4399	2
0	30075	4404	6
0	30114	4412	1
0	30126	4414	1
0	30144	4416	1
0	30241	4430	1
0	30247	4431	2
0	30254	4432	1
0	30265	4434	1
0	30277	4436	1
0	30287	4437	1
0	30315	4441	1
0	30330	4442	1
0	30341	4443	2
0	30351	4444	2
0	30363	4445	1
0	30383	4448	1
0	30400	4451	1
0	30417	4453	1
0	30423	4454	2
0	30455	4458	1
0	30537	4472	1
0	30549	4473	1
0	30595	4481	1
0	30609	4484	1
0	30616	4485	1
0	30640	4491	1
0	30660	4493	1
0	30678	4495	1
0	30693	4497	1
0	30706	4498	1
0	30725	4500	1
0	30763	4505	1
0	30781	4507	1
0	30792	4508	2
0	30802	4509	3
0	30812	4510	3
0	30821	4511	2
0	30848	4516	1
0	30859	4517	2
0	30883	4520	1
0	30918	4525	5
0	30927	4526	4
0	30947	4528	1
0	30965	4530	1
0	31002	4535	1
0	31062	4551	1
0	31079	4553	1
0	31090	4554	2
0	31143	4561	1
0	31167	4564	1
0	31186	4566	1
0	31205	4569	1
0	31219	4571	1
0	31226	4572	1
0	31235	4573	1
0	31241	4574	2
0	31250	4575	3
0	31261	4577	1
0	31279	4582	1
0	31298	4584	1
0	31327	4589	3
0	31333	4590	2
0	31343	4591	1
0	31388	4598	1
0	31422	4603	1
0	31433	4604	1
0	31449	4608	1
0	31458	4610	1
0	31493	4617	1
0	31499	4618	2
0	31508	4620	1
0	31515	4621	1
0	31529	4623	1
0	31536	4624	1
0	31543	4625	1
0	31560	4627	1
0	31569	4628	2
0	31578	4630	1
0	31588	4631	1
0	31618	4635	1
0	31639	4640	2
0	31662	4644	1
0	31722	4654	1
0	31731	4656	1
0	31738	4657	1
0	31777	4661	1
0	31812	4666	1
0	31823	4667	1
0	31834	4668	1
0	31859	4671	1
0	31892	4679	1
0	31899	4680	1
0	31935	4688	1
0	31981	4696	1
0	31993	4698	1
0	32002	4699	2
0	32021	4703	1
0	32030	4704	2
0	32063	4710	1
0	32112	4716	1
0	32149	4721	4
0	32158	4722	4
0	32166	4723	4
0	32177	4724	1
0	32233	4731	1
0	32251	4733	1
0	32276	4736	1
0	32317	4742	1
0	32380	4750	1
0	32471	4762	1
0	32488	4764	1
0	32514	4767	1
0	32526	4768	1
0	32537	4769	1
0	32554	4771	1
0	32564	4772	1
0	32571	4773	1
0	32579	4774	1
0	32585	4775	2
0	32603	4776	1
0	32641	4781	1
0	32652	4782	1
0	32702	4789	1
0	32718	4791	1
0	32729	4792	1
0	32749	4794	1
0	32761	4795	1
0	32778	4797	1
0	32799	4799	1
0	32868	4808	1
0	32892	4811	1
0	32903	4812	1
0	32916	4813	1
0	32949	4818	1
0	32959	4819	1
0	32994	4825	1
0	33006	4826	2
0	33015	4827	2
0	33055	4833	1
0	33073	4835	1
0	33113	4840	3
0	33147	4844	1
0	33175	4847	1
0	33224	4854	1
0	33273	4861	1
0	33286	4862	1
0	33297	4863	2
0	33308	4864	3
0	33319	4865	3
0	33351	4872	1
0	33363	4874	1
0	33381	4876	1
0	33411	4880	1
0	33425	4881	1
0	33442	4883	1
0	33513	4895	1
0	33519	4896	2
0	33529	4897	1
0	33564	4903	1
0	33573	4904	2
0	33601	4909	5
0	33608	4910	1
0	33615	4911	1
0	33625	4912	1
0	33667	4919	1
0	33673	4920	2
0	33691	4923	1
0	33705	4926	1
0	33715	4928	1
0	33725	4929	2
0	33738	4930	2
0	33798	4938	1
0	33809	4939	1
0	33820	4940	1
0	33830	4941	1
0	33859	4946	1
0	33869	4947	2
0	33881	4948	1
0	33916	4954	1
0	33942	4961	1
0	33979	4966	4
0	33989	4967	3
0	33995	4968	2
0	34015	4972	1
0	34033	4977	1
0	34067	4982	1
0	34077	4983	2
0	34087	4984	3
0	34104	4986	1
0	34120	4988	1
0	34139	4992	1
0	34145	4993	2
0	34156	4996	1
0	34163	4997	1
0	34174	5000	1
1	2556	406	1
1	2556	406	0
1	2564	407	1
1	2565	407	2
1	2569	407	1
1	2580	408	0
1	2601	411	1
1	2601	411	0
1	2602	411	1
1	2608	412	0
1	2619	415	1
1	2619	415	0
1	2637	419	1
1	2637	419	0
1	2645	420	1
1	2656	422	2
1	2672	424	1
1	2680	425	0
1	2685	426	1
1	2687	426	0
1	2696	428	1
1	2696	428	0
1	2697	428	1
1	2702	429	2
1	2705	429	1
1	2715	430	0
1	2720	431	1
1	2722	431	0
1	2727	432	1
1	2729	432	0
1	2745	435	1
1	2745	435	0
1	2769	440	1
1	2769	440	0
1	2791	443	1
1	2791	443	0
1	2809	445	1
1	2809	445	0
1	2827	447	1
1	2827	447	0
1	2850	451	1
1	2850	451	0
1	2861	452	1
1	2863	452	0
1	2904	462	1
1	2904	462	0
1	2905	462	1
1	2910	463	2
1	2918	463	1
1	2925	464	2
1	2929	464	1
1	2943	465	0
1	2958	467	1
1	2958	467	0
1	2968	468	1
1	2998	472	0
1	3015	474	1
1	3015	474	0
1	3034	476	1
1	3034	476	0
1	3044	477	1
1	3046	477	0
1	3055	478	1
1	3057	478	0
1	3095	483	1
1	3095	483	0
1	3111	485	1
1	3111	485	0
1	3116	486	1
1	3118	486	0
1	3123	487	1
1	3125	487	0
1	3163	494	1
1	3163	494	0
1	3183	496	1
1	3183	496	0
1	3202	498	1
1	3202	498	0
1	3213	499	1
1	3215	499	0
1	3234	501	1
1	3234	501	0
1	3265	505	1
1	3265	505	0
1	3304	510	1
1	3304	510	0
1	3311	511	1
1	3316	511	0
1	3338	514	1
1	3338	514	0
1	3369	519	1
1	3369	519	0
1	3390	523	1
1	3390	523	0
1	3424	529	1
1	3424	529	0
1	3515	541	1
1	3515	541	0
1	3539	544	1
1	3539	544	0
1	3596	555	1
1	3596	555	0
1	3597	555	1
1	3607	556	0
1	3618	558	1
1	3618	558	0
1	3635	560	1
1	3635	560	0
1	3659	566	1
1	3659	566	0
1	3660	566	1
1	3665	567	2
1	3671	567	1
1	3681	568	0
1	3709	572	1
1	3709	572	0
1	3719	573	1
1	3721	573	0
1	3739	576	1
1	3739	576	0
1	3773	581	1
1	3773	581	0
1	3830	589	1
1	3830	589	0
1	3861	593	1
1	3861	593	0
1	3881	595	1
1	3881	595	0
1	3898	598	1
1	3898	598	0
1	3916	600	1
1	3916	600	0
1	3957	606	1
1	3957	606	0
1	3958	606	1
1	3978	611	0
1	3979	611	1
1	3987	612	0
1	4062	625	1
1	4062	625	0
1	4071	626	1
1	4073	626	0
1	4114	632	1
1	4114	632	0
1	4179	643	1
1	4179	643	0
1	4180	643	1
1	4181	643	2
1	4187	644	1
1	4193	645	0
1	4259	656	1
1	4259	656	0
1	4294	661	1
1	4294	661	0
1	4295	661	1
1	4305	662	0
1	4316	664	1
1	4316	664	0
1	4341	669	1
1	4341	669	0
1	4360	672	1
1	4360	672	0
1	4426	684	1
1	4426	684	0
1	4453	688	1
1	4453	688	0
1	4499	694	1
1	4499	694	0
1	4506	695	1
1	4507	695	2
1	4510	695	1
1	4520	696	0
1	4525	697	1
1	4527	697	0
1	4552	701	1
1	4553	701	2
1	4559	702	1
1	4560	702	2
1	4566	703	1
1	4572	704	0
1	4581	706	1
1	4581	706	0
1	4598	708	1
1	4598	708	0
1	4610	709	1
1	4613	709	0
1	4636	712	1
1	4636	712	0
1	4654	715	1
1	4654	715	0
1	4676	721	1
1	4676	721	0
1	4685	723	1
1	4685	723	0
1	4690	724	1
1	4692	724	0
1	4704	726	1
1	4704	726	0
1	4723	728	1
1	4723	728	0
1	4724	728	1
1	4732	729	0
1	4737	730	1
1	4741	730	0
1	4781	736	1
1	4781	736	0
1	4786	737	1
1	4790	737	0
1	4892	754	1
1	4892	754	0
1	4901	755	1
1	4903	755	0
1	4912	756	1
1	4913	756	2
1	4918	756	1
1	4955	761	0
1	4956	761	1
1	4968	762	0
1	4985	765	1
1	4985	765	0
1	4994	767	1
1	4994	767	0
1	4999	768	1
1	5001	768	0
1	5028	774	1
1	5028	774	0
1	5045	780	1
1	5045	780	0
1	5054	782	1
1	5054	782	0
1	5067	784	1
1	5067	784	0
1	5076	785	1
1	5080	785	0
1	5108	789	1
1	5108	789	0
1	5183	799	1
1	5183	799	0
1	5192	800	1
1	5193	800	2
1	5196	800	1
1	5206	801	0
1	5245	806	1
1	5245	806	0
1	5246	806	1
1	5257	807	0
1	5300	816	1
1	5300	816	0
1	5327	822	1
1	5327	822	0
1	5342	824	1
1	5342	824	0
1	5367	827	1
1	5367	827	0
1	5381	831	1
1	5385	832	0
1	5386	832	1
1	5397	833	0
1	5414	835	1
1	5414	835	0
1	5442	843	1
1	5442	843	0
1	5451	845	1
1	5451	845	0
1	5463	847	1
1	5463	847	0
1	5488	851	1
1	5488	851	0
1	5521	855	1
1	5521	855	0
1	5530	856	1
1	5532	856	0
1	5599	869	1
1	5599	869	0
1	5608	870	1
1	5610	870	0
1	5625	872	1
1	5625	872	0
1	5654	879	1
1	5654	879	0
1	5731	889	1
1	5731	889	0
1	5776	895	1
1	5776	895	0
1	5795	897	1
1	5795	897	0
1	5814	899	1
1	5814	899	0
1	5841	902	1
1	5841	902	0
1	5850	903	1
1	5853	903	0
1	5862	904	1
1	5864	904	0
1	5881	906	1
1	5895	908	2
1	5901	909	1
1	5907	910	0
1	5912	911	1
1	5914	911	0
1	5919	912	1
1	5921	912	0
1	5926	913	1
1	5929	913	0
1	5936	914	1
1	5941	914	0
1	5948	915	1
1	5953	915	0
1	5968	918	1
1	5968	918	0
1	5992	921	1
1	5992	921	0
1	6012	925	1
1	6012	925	0
1	6040	929	1
1	6040	929	0
1	6041	929	1
1	6050	930	2
1	6054	930	1
1	6064	931	0
1	6097	935	1
1	6097	935	0
1	6135	940	1
1	6135	940	0
1	6170	945	1
1	6170	945	0
1	6181	947	1
1	6181	947	0
1	6182	947	1
1	6188	948	0
1	6210	954	1
1	6210	954	0
1	6219	955	1
1	6220	955	2
1	6222	955	1
1	6238	958	2
1	6253	960	1
1	6264	961	0
1	6286	965	1
1	6286	965	0
1	6337	972	1
1	6337	972	0
1	6338	972	1
1	6348	973	2
1	6350	973	1
1	6360	974	0
1	6369	975	1
1	6371	975	0
1	6414	986	1
1	6414	986	0
1	6443	990	1
1	6443	990	0
1	6448	991	1
1	6452	991	0
1	6459	992	1
1	6464	992	0
1	6483	995	1
1	6483	995	0
1	6508	1000	1
1	6508	1000	0
1	6517	1002	1
1	6517	1002	0
1	6518	1002	1
1	6527	1003	0
1	6534	1004	1
1	6539	1004	0
1	6607	1013	1
1	6607	1013	0
1	6624	1015	1
1	6624	1015	0
1	6679	1024	1
1	6679	1024	0
1	6753	1035	1
1	6753	1035	0
1	6770	1037	1
1	6792	1040	0
1	6802	1041	1
1	6804	1041	0
1	6811	1042	1
1	6813	1042	0
1	6840	1048	1
1	6840	1048	0
1	6900	1056	1
1	6900	1056	0
1	6953	1063	1
1	6953	1063	0
1	6987	1069	1
1	6987	1069	0
1	7003	1072	1
1	7003	1072	0
1	7026	1076	1
1	7026	1076	0
1	7077	1087	1
1	7077	1087	0
1	7086	1088	1
1	7088	1088	0
1	7113	1097	1
1	7113	1097	0
1	7137	1101	1
1	7137	1101	0
1	7160	1104	1
1	7160	1104	0
1	7174	1106	1
1	7174	1106	0
1	7201	1111	1
1	7201	1111	0
1	7220	1114	1
1	7220	1114	0
1	7246	1117	1
1	7246	1117	0
1	7253	1118	1
1	7255	1118	0
1	7267	1120	1
1	7267	1120	0
1	7279	1123	1
1	7288	1124	2
1	7296	1125	1
1	7297	1125	2
1	7307	1126	1
1	7317	1127	0
1	7324	1128	1
1	7325	1128	2
1	7327	1128	1
1	7333	1129	0
1	7360	1135	1
1	7360	1135	0
1	7365	1136	1
1	7366	1136	2
1	7368	1136	1
1	7375	1137	0
1	7427	1144	1
1	7427	1144	0
1	7456	1148	1
1	7456	1148	0
1	7481	1151	1
1	7481	1151	0
1	7496	1153	1
1	7496	1153	0
1	7532	1158	1
1	7532	1158	0
1	7563	1162	1
1	7563	1162	0
1	7614	1168	1
1	7614	1168	0
1	7631	1170	1
1	7631	1170	0
1	7640	1171	1
1	7642	1171	0
1	7660	1173	1
1	7660	1173	0
1	7695	1180	1
1	7695	1180	0
1	7703	1181	1
1	7705	1181	0
1	7718	1183	1
1	7728	1186	0
1	7729	1186	1
1	7736	1187	0
1	7743	1188	1
1	7747	1188	0
1	7752	1189	1
1	7754	1189	0
1	7763	1191	1
1	7763	1191	0
1	7764	1191	1
1	7772	1192	0
1	7779	1193	1
1	7783	1193	0
1	7796	1195	1
1	7796	1195	0
1	7816	1200	1
1	7816	1200	0
1	7834	1204	1
1	7834	1204	0
1	7844	1205	1
1	7846	1205	0
1	7863	1207	1
1	7863	1207	0
1	7889	1210	1
1	7889	1210	0
1	7919	1214	1
1	7919	1214	0
1	7930	1217	1
1	7930	1217	0
1	7943	1221	1
1	7943	1221	0
1	7961	1225	1
1	7961	1225	0
1	7966	1226	1
1	7968	1226	0
1	7977	1228	1
1	7977	1228	0
1	8006	1233	1
1	8006	1233	0
1	8007	1233	1
1	8008	1233	2
1	8025	1235	3
1	8049	1238	2
1	8060	1239	1
1	8070	1240	0
1	8081	1242	1
1	8081	1242	0
1	8086	1243	1
1	8089	1243	0
1	8096	1244	1
1	8100	1244	0
1	8118	1248	1
1	8118	1248	0
1	8137	1250	1
1	8137	1250	0
1	8163	1253	1