version 3
run Experimentos-748-20260508-20:06:14-31578
attr configname Experimentos
attr datetime 20260508-20:06:14
attr datetimef 20260508-200614
attr experiment Experimentos
attr inifile TwoQueues.ini
attr iterationvars "$p=0.7, $q=0.3, $Y=10, $m=3"
attr iterationvarsd p=0.7/q=0.3/Y=10/m=3
attr iterationvarsf p=0.7,q=0.3,Y=10,m=3-
attr measurement "$p=0.7, $q=0.3, $Y=10, $m=3"
attr network TwoQueues
attr processid 31578
attr repetition 8
attr replication #8
attr resultdir results
attr runnumber 748
attr seedset 748
itervar Y 10
itervar m 3
itervar p 0.7
itervar q 0.3
config description "Barrido completo de parámetros Proyecto 12"
config **.source1.p 0.7
config **.source1.q 0.2
config **.source2.p 0.6
config **.source2.q 0.3
config **.serverWithMaintenance.Y 10
config **.serverWithMaintenance.m 3
config network TwoQueues
config cpu-time-limit 5000s
config sim-time-limit 5000s
config warmup-period 400s
config repeat 20
config output-scalar-file results/Experimentos-p=0.7,q=0.3,Y=10,m=3--#8.sca
config output-vector-file results/Experimentos-p=0.7,q=0.3,Y=10,m=3--#8.vec
config **.vector-recording true

vector 0 TwoQueues.serverWithMaintenance residenceTime2:vector ETV
attr recordingmode vector
attr source delay2
attr title "Residence Time Class 2"
vector 1 TwoQueues.queue2 queueLengthStats:vector ETV
attr recordingmode vector
attr source qlen
attr title "Average Queue Length"
vector 2 TwoQueues.queue1 queueLengthStats:vector ETV
attr recordingmode vector
attr source qlen
attr title "Average Queue Length"
vector 3 TwoQueues.server residenceTime1:vector ETV
attr recordingmode vector
attr source delay1
attr title "Residence Time Class 1"
vector 4 TwoQueues.server throughputStats1:vector ETV
attr recordingmode vector
attr source throughput1
attr title "Throughput Class 1"
0	2409	400	1
0	2420	402	1
0	2455	406	4
0	2464	407	5
0	2475	410	1
0	2537	421	1
0	2544	422	1
0	2551	423	1
0	2559	424	1
0	2565	425	2
0	2582	427	1
0	2604	430	1
0	2637	434	3
0	2648	435	2
0	2661	436	1
0	2670	437	2
0	2680	438	1
0	2704	443	1
0	2731	450	1
0	2742	451	1
0	2773	455	1
0	2788	458	1
0	2812	462	5
0	2822	463	3
0	2873	475	1
0	2879	476	2
0	2886	477	1
0	2930	490	1
0	2939	491	2
0	2955	494	1
0	2966	497	1
0	2973	498	1
0	2989	502	2
0	3015	505	1
0	3027	506	1
0	3041	509	1
0	3057	511	1
0	3072	513	1
0	3081	514	2
0	3092	516	1
0	3116	519	1
0	3124	520	1
0	3144	524	5
0	3153	525	5
0	3164	526	5
0	3199	533	1
0	3225	536	1
0	3235	537	2
0	3251	541	1
0	3262	544	1
0	3278	547	1
0	3323	558	1
0	3356	562	3
0	3386	568	1
0	3395	570	1
0	3402	571	1
0	3413	572	1
0	3428	574	1
0	3446	577	1
0	3456	578	1
0	3472	580	1
0	3532	592	1
0	3562	598	1
0	3591	605	1
0	3598	606	1
0	3606	607	1
0	3612	608	2
0	3645	613	1
0	3656	614	1
0	3681	620	1
0	3695	622	1
0	3717	628	1
0	3738	633	1
0	3790	644	1
0	3816	649	1
0	3822	650	2
0	3831	652	1
0	3883	664	1
0	3906	667	1
0	3917	670	1
0	3924	671	1
0	3951	675	1
0	3976	679	5
0	3988	680	4
0	4000	681	4
0	4010	682	2
0	4044	688	1
0	4066	692	1
0	4092	695	1
0	4102	696	2
0	4123	700	1
0	4132	702	1
0	4163	706	1
0	4185	709	1
0	4211	716	1
0	4222	719	1
0	4230	720	1
0	4237	721	2
0	4243	722	2
0	4252	724	1
0	4259	725	1
0	4285	729	1
0	4306	733	5
0	4335	739	1
0	4349	742	1
0	4357	743	1
0	4363	744	2
0	4373	745	1
0	4389	748	1
0	4423	754	1
0	4439	757	1
0	4471	761	1
0	4498	765	4
0	4505	766	4
0	4514	767	3
0	4522	768	3
0	4531	770	1
0	4542	773	1
0	4562	777	1
0	4572	778	1
0	4595	782	1
0	4602	783	1
0	4617	787	3
0	4625	788	3
0	4631	789	2
0	4642	790	3
0	4652	791	2
0	4665	793	1
0	4683	795	1
0	4689	796	2
0	4712	800	1
0	4723	802	1
0	4744	807	1
0	4757	809	1
0	4763	810	2
0	4772	812	1
0	4779	813	1
0	4791	815	1
0	4805	816	1
0	4816	817	1
0	4833	819	1
0	4865	826	1
0	4884	830	4
0	4894	831	1
0	4911	836	1
0	4936	841	1
0	4943	842	1
0	4961	846	1
0	4981	849	1
0	4992	850	1
0	5028	856	1
0	5063	863	1
0	5079	867	5
0	5088	869	1
0	5106	872	1
0	5148	880	1
0	5160	881	1
0	5176	883	1
0	5191	888	1
0	5202	891	1
0	5217	895	1
0	5230	896	1
0	5256	900	2
0	5292	908	1
0	5316	914	1
0	5326	915	1
0	5345	919	1
0	5352	920	2
0	5358	921	2
0	5383	926	1
0	5395	929	1
0	5401	930	2
0	5527	959	1
0	5537	960	1
0	5553	963	1
0	5573	968	1
0	5600	975	1
0	5616	977	1
0	5632	979	1
0	5647	981	1
0	5658	982	2
0	5680	989	1
0	5706	994	1
0	5727	998	1
0	5739	999	1
0	5772	1007	1
0	5779	1008	1
0	5788	1010	1
0	5795	1011	1
0	5834	1018	1
0	5845	1019	1
0	5866	1023	1
0	5891	1027	3
0	5901	1028	3
0	5907	1029	2
0	5952	1039	1
0	5965	1043	1
0	5975	1044	1
0	5991	1046	1
0	6027	1053	1
0	6037	1054	1
0	6107	1064	1
0	6142	1068	5
0	6154	1069	5
0	6163	1070	5
0	6169	1071	6
0	6175	1072	5
0	6181	1073	5
0	6196	1078	1
0	6240	1090	1
0	6247	1091	1
0	6254	1092	1
0	6277	1098	1
0	6288	1101	1
0	6304	1103	1
0	6316	1105	1
0	6336	1109	1
0	6358	1112	1
0	6423	1126	1
0	6442	1129	1
0	6451	1130	2
0	6489	1137	1
0	6521	1141	2
0	6545	1144	1
0	6567	1149	1
0	6581	1152	1
0	6588	1153	1
0	6641	1161	1
0	6660	1164	1
0	6670	1165	1
0	6686	1167	1
0	6708	1172	1
0	6786	1184	1
0	6832	1197	1
0	6849	1203	1
0	6858	1205	1
0	6897	1212	1
0	6906	1213	1
0	6912	1214	2
0	6922	1215	3
0	6930	1216	2
0	6937	1217	1
0	6978	1226	1
0	7015	1231	1
0	7034	1233	1
0	7044	1234	2
0	7080	1243	1
0	7094	1245	1
0	7145	1259	1
0	7175	1265	1
0	7181	1266	2
0	7199	1270	1
0	7220	1274	1
0	7246	1278	1
0	7253	1279	1
0	7272	1286	1
0	7295	1291	1
0	7306	1292	2
0	7330	1299	1
0	7349	1302	1
0	7366	1304	1
0	7397	1310	1
0	7429	1314	4
0	7439	1315	2
0	7450	1316	1
0	7508	1326	1
0	7515	1327	1
0	7522	1328	1
0	7534	1330	1
0	7572	1338	1
0	7579	1339	1
0	7588	1341	1
0	7612	1345	2
0	7625	1349	1
0	7639	1351	1
0	7646	1352	1
0	7660	1354	1
0	7674	1356	1
0	7681	1357	1
0	7690	1359	1
0	7697	1360	1
0	7725	1365	1
0	7760	1369	4
0	7770	1370	4
0	7787	1374	1
0	7793	1375	2
0	7812	1382	1
0	7823	1385	1
0	7858	1391	1
0	7867	1392	2
0	7914	1400	1
0	7920	1401	2
0	7952	1405	4
0	7961	1406	2
0	7968	1407	1
0	7975	1408	1
0	7998	1411	1
0	8019	1414	1
0	8053	1422	1
0	8064	1423	2
0	8073	1424	3
0	8080	1425	3
0	8108	1429	5
0	8119	1430	5
0	8128	1431	6
0	8141	1432	5
0	8169	1436	1
0	8213	1448	1
0	8236	1452	1
0	8261	1456	1
0	8278	1458	1
0	8326	1468	1
0	8343	1472	3
0	8366	1475	1
0	8373	1476	1
0	8381	1477	1
0	8391	1478	2
0	8402	1479	2
0	8413	1481	1
0	8420	1482	1
0	8429	1484	1
0	8443	1486	1
0	8476	1492	1
0	8490	1493	1
0	8501	1494	2
0	8513	1495	1
0	8534	1497	1
0	8552	1499	1
0	8563	1500	1
0	8574	1501	1
0	8591	1503	1
0	8628	1508	1
0	8656	1512	3
0	8675	1514	1
0	8684	1515	2
0	8695	1516	3
0	8736	1524	1
0	8760	1527	1
0	8776	1529	1
0	8803	1534	1
0	8864	1548	1
0	8875	1551	1
0	8899	1555	1
0	8907	1556	1
0	8913	1557	2
0	8926	1561	1
0	8934	1562	1
0	8941	1563	2
0	8947	1564	2
0	8961	1566	1
0	9028	1581	1
0	9066	1590	1
0	9094	1594	4
0	9100	1595	3
0	9111	1598	1
0	9121	1599	1
0	9130	1600	1
0	9147	1603	1
0	9157	1604	2
0	9165	1605	2
0	9184	1608	1
0	9207	1611	1
0	9278	1620	1
0	9295	1622	1
0	9306	1623	1
0	9324	1625	1
0	9340	1627	1
0	9347	1628	1
0	9414	1644	1
0	9421	1645	1
0	9446	1651	1
0	9465	1653	1
0	9496	1658	1
0	9505	1659	2
0	9536	1667	1
0	9574	1676	1
0	9581	1677	1
0	9604	1680	1
0	9657	1690	1
0	9668	1691	1
0	9728	1703	1
0	9743	1708	1
0	9759	1712	1
0	9771	1714	1
0	9813	1724	1
0	9836	1729	1
0	9877	1736	1
0	9887	1737	1
0	9902	1739	1
0	9908	1740	2
0	9917	1742	1
0	9928	1745	1
0	9953	1751	1
0	10001	1765	1
0	10025	1770	1
0	10031	1771	2
0	10048	1773	1
0	10060	1774	1
0	10087	1779	1
0	10113	1783	1
0	10138	1786	1
0	10150	1787	1
0	10172	1791	2
0	10199	1796	1
0	10230	1800	1
0	10241	1801	1
0	10279	1806	1
0	10300	1810	1
0	10313	1814	1
0	10322	1816	1
0	10330	1817	1
0	10336	1818	2
0	10363	1822	2
0	10374	1823	1
0	10398	1831	1
0	10420	1837	1
0	10427	1838	1
0	10434	1839	1
0	10441	1840	1
0	10507	1857	1
0	10531	1861	1
0	10551	1865	1
0	10565	1869	2
0	10696	1900	1
0	10731	1907	1
0	10738	1908	1
0	10749	1911	1
0	10788	1918	1
0	10805	1921	1
0	10811	1922	2
0	10825	1924	1
0	10832	1925	1
0	10852	1931	1
0	10866	1933	1
0	10878	1935	1
0	10894	1937	1
0	10908	1940	1
0	10937	1945	1
0	10962	1948	1
0	10971	1949	2
0	10982	1951	1
0	10998	1955	1
0	11030	1959	3
0	11039	1960	3
0	11048	1962	1
0	11062	1964	1
0	11069	1965	1
0	11087	1969	1
0	11109	1975	1
0	11149	1981	1
0	11160	1982	1
0	11176	1985	1
0	11205	1989	3
0	11217	1991	1
0	11224	1992	1
0	11239	1997	1
0	11262	2001	1
0	11275	2004	1
0	11285	2005	1
0	11300	2010	1
0	11310	2011	1
0	11323	2013	1
0	11340	2017	2
0	11350	2018	1
0	11360	2019	1
0	11366	2020	2
0	11373	2021	1
0	11385	2022	1
0	11419	2028	1
0	11437	2030	1
0	11443	2031	2
0	11472	2037	1
0	11518	2043	1
0	11550	2049	1
0	11593	2057	1
0	11621	2062	1
0	11632	2064	1
0	11638	2065	2
0	11647	2066	3
0	11665	2069	1
0	11698	2073	1
0	11737	2078	1
0	11763	2082	5
0	11774	2083	5
0	11787	2084	2
0	11797	2085	2
0	11828	2089	1
0	11838	2090	1
0	11845	2091	1
0	11870	2094	1
0	11881	2095	2
0	11905	2101	1
0	11934	2109	1
0	11944	2110	1
0	11993	2122	1
0	12002	2124	1
0	12041	2131	1
0	12048	2132	1
0	12059	2135	1
0	12075	2138	1
0	12086	2141	1
0	12096	2142	1
0	12121	2147	1
0	12147	2150	1
0	12159	2152	1
0	12190	2160	1
0	12216	2168	1
0	12223	2169	1
0	12250	2175	1
0	12257	2176	1
0	12268	2177	1
0	12279	2178	1
0	12300	2182	2
0	12322	2187	1
0	12334	2189	1
0	12348	2192	1
0	12360	2193	1
0	12369	2194	2
0	12401	2200	1
0	12411	2201	2
0	12466	2208	1
0	12486	2210	1
0	12524	2214	5
0	12585	2223	1
0	12610	2231	1
0	12616	2232	2
0	12655	2237	1
0	12666	2238	1
0	12682	2240	1
0	12689	2241	1
0	12709	2245	1
0	12759	2254	1
0	12780	2258	5
0	12791	2259	4
0	12802	2260	2
0	12810	2261	2
0	12819	2263	1
0	12864	2272	1
0	12889	2276	1
0	12898	2277	2
0	12905	2278	3
0	12911	2279	2
0	12954	2290	1
0	12961	2291	1
0	12981	2295	1
0	12991	2296	1
0	12998	2297	1
0	13008	2298	1
0	13020	2299	1
0	13029	2300	1
0	13040	2301	1
0	13066	2305	1
0	13100	2309	1
0	13133	2319	1
0	13146	2322	1
0	13156	2323	1
0	13163	2324	1
0	13174	2327	1
0	13203	2334	1
0	13221	2336	1
0	13232	2337	1
0	13244	2338	1
0	13275	2342	2
0	13291	2345	1
0	13314	2349	1
0	13325	2352	1
0	13353	2357	1
0	13373	2360	1
0	13405	2366	1
0	13415	2367	1
0	13424	2369	1
0	13439	2372	1
0	13460	2376	5
0	13466	2377	6
0	13474	2378	1
0	13480	2379	2
0	13504	2387	1
0	13520	2389	1
0	13527	2390	1
0	13534	2391	1
0	13558	2398	1
0	13573	2403	1
0	13596	2407	4
0	13607	2408	2
0	13620	2409	2
0	13630	2410	2
0	13660	2414	1
0	13677	2416	1
0	13687	2417	1
0	13694	2418	1
0	13705	2419	1
0	13714	2420	2
0	13732	2424	5
0	13739	2425	1
0	13746	2426	1
0	13753	2427	1
0	13763	2428	1
0	13782	2434	1
0	13805	2438	1
0	13812	2439	1
0	13847	2446	1
0	13856	2447	2
0	13872	2451	2
0	13887	2455	1
0	13904	2457	1
0	13915	2460	1
0	13926	2462	1
0	13946	2467	1
0	13972	2471	1
0	13988	2474	1
0	13995	2475	1
0	14002	2476	1
0	14018	2480	3
0	14051	2485	1
0	14058	2486	1
0	14081	2490	1
0	14088	2491	1
0	14112	2495	1
0	14118	2496	2
0	14125	2497	1
0	14134	2499	1
0	14142	2500	1
0	14159	2504	5
0	14168	2505	5
0	14174	2506	4
0	14184	2508	1
0	14190	2509	2
0	14203	2513	1
0	14210	2514	1
0	14220	2515	1
0	14236	2516	1
0	14257	2518	1
0	14289	2522	4
0	14300	2523	4
0	14310	2524	3
0	14322	2525	1
0	14339	2527	1
0	14380	2532	1
0	14392	2533	1
0	14401	2534	2
0	14410	2536	1
0	14417	2537	1
0	14431	2541	1
0	14449	2545	1
0	14460	2547	1
0	14526	2557	1
0	14537	2558	2
0	14549	2559	1
0	14563	2562	1
0	14583	2567	1
0	14595	2569	1
0	14606	2570	1
0	14623	2574	3
0	14645	2577	1
0	14654	2578	2
0	14663	2579	1
0	14670	2580	1
0	14677	2581	1
0	14687	2582	1
0	14696	2583	1
0	14705	2585	1
0	14753	2595	1
0	14781	2599	5
0	14787	2600	4
0	14793	2601	4
0	14800	2602	1
0	14829	2609	1
0	14836	2610	1
0	14843	2611	1
0	14857	2613	1
0	14912	2625	1
0	14918	2626	2
0	14942	2630	3
0	14956	2631	2
0	14966	2632	3
0	14976	2633	3
0	14987	2634	1
0	15001	2637	1
0	15079	2649	1
0	15137	2660	1
0	15164	2665	1
0	15198	2672	1
0	15220	2676	2
0	15227	2677	1
0	15237	2678	1
0	15246	2679	1
0	15290	2686	1
0	15312	2692	1
0	15331	2695	1
0	15340	2696	2
0	15347	2697	1
0	15354	2698	1
0	15375	2702	3
0	15387	2703	3
0	15400	2704	4
0	15416	2706	1
0	15490	2717	1
0	15507	2719	1
0	15518	2721	1
0	15531	2723	1
0	15538	2724	2
0	15547	2725	2
0	15572	2731	1
0	15591	2738	1
0	15607	2743	1
0	15616	2744	2
0	15637	2751	1
0	15673	2758	1
0	15709	2766	1
0	15721	2768	1
0	15728	2769	1
0	15749	2774	1
0	15774	2778	5
0	15784	2779	1
0	15791	2780	1
0	15800	2782	1
0	15825	2786	1
0	15842	2788	1
0	15851	2790	1
0	15862	2793	1
0	15877	2798	1
0	15891	2800	1
0	15905	2804	4
0	15924	2807	1
0	15964	2815	1
0	16025	2828	1
0	16065	2840	1
0	16076	2841	2
0	16090	2844	1
0	16097	2845	1
0	16116	2848	1
0	16132	2850	1
0	16147	2854	3
0	16157	2855	4
0	16166	2856	2
0	16172	2857	2
0	16183	2859	1
0	16194	2860	2
0	16205	2861	3
0	16216	2862	3
0	16224	2863	3
0	16231	2864	1
0	16252	2869	1
0	16345	2888	1
0	16352	2889	1
0	16397	2899	1
0	16411	2901	1
0	16425	2903	1
0	16432	2904	1
0	16443	2907	1
0	16452	2909	1
0	16496	2916	1
0	16523	2920	4
0	16533	2921	4
0	16544	2922	5
0	16554	2923	4
0	16563	2924	3
0	16572	2926	1
0	16597	2931	1
0	16604	2932	1
0	16615	2935	1
0	16630	2940	1
0	16645	2944	3
0	16651	2945	2
0	16678	2951	1
0	16691	2954	1
0	16701	2955	1
0	16724	2959	1
0	16734	2960	1
0	16747	2963	1
0	16757	2964	1
0	16766	2965	1
0	16780	2969	4
0	16793	2972	1
0	16817	2976	1
0	16837	2980	1
0	16872	2985	1
0	16883	2988	1
0	16905	2994	1
0	16920	2998	1
0	16945	3003	1
0	16993	3012	1
0	17025	3016	2
0	17095	3030	1
0	17120	3036	1
0	17136	3039	1
0	17152	3042	1
0	17168	3045	1
0	17180	3046	1
0	17193	3047	2
0	17203	3048	2
0	17211	3049	3
0	17226	3053	4
0	17232	3054	3
0	17250	3058	1
0	17266	3060	1
0	17278	3062	1
0	17289	3064	1
0	17306	3068	1
0	17312	3069	2
0	17321	3071	1
0	17351	3078	1
0	17374	3082	5
0	17392	3085	1
0	17408	3089	1
0	17419	3092	1
0	17431	3095	1
0	17437	3096	2
0	17458	3099	1
0	17465	3100	1
0	17472	3101	1
0	17487	3102	1
0	17516	3106	4
0	17542	3109	1
0	17553	3110	1
0	17580	3117	1
0	17587	3118	1
0	17594	3119	1
0	17615	3122	1
0	17657	3128	1
0	17675	3130	1
0	17721	3140	1
0	17744	3144	3
0	17755	3145	4
0	17764	3146	3
0	17850	3162	1
0	17861	3163	1
0	17873	3164	1
0	17889	3166	1
0	17908	3169	1
0	17920	3170	1
0	17931	3171	1
0	17958	3175	1
0	18027	3185	1
0	18060	3189	1
0	18077	3191	1
0	18125	3199	1
0	18156	3204	1
0	18173	3206	1
0	18242	3218	1
0	18253	3219	1
0	18267	3221	1
0	18293	3226	1
0	18303	3227	1
0	18319	3231	1
0	18332	3232	2
0	18343	3233	2
0	18361	3236	1
0	18381	3241	1
0	18416	3246	1
0	18428	3247	1
0	18446	3249	1
0	18473	3253	5
0	18479	3254	5
0	18487	3255	4
0	18493	3256	2
0	18499	3257	3
0	18508	3259	1
0	18515	3260	1
0	18545	3270	1
0	18602	3281	1
0	18610	3282	1
0	18629	3286	5
0	18635	3287	5
0	18651	3290	1
0	18658	3291	1
0	18671	3295	1
0	18698	3301	1
0	18736	3310	1
0	18747	3313	1
0	18754	3314	1
0	18766	3315	1
0	18798	3319	3
0	18807	3320	2
0	18823	3325	1
0	18831	3326	2
0	18840	3327	2
0	18848	3328	3
0	18857	3330	1
0	18871	3332	1
0	18903	3338	1
0	18915	3339	1
0	18935	3343	5
0	18941	3344	3
0	18951	3345	1
0	18964	3348	1
0	18981	3351	1
0	18987	3352	2
0	19007	3357	1
0	19017	3358	1
0	19039	3362	1
0	19056	3364	1
0	19070	3368	4
0	19077	3369	1
0	19091	3371	1
0	19098	3372	1
0	19111	3375	1
0	19117	3376	2
0	19124	3377	3
0	19133	3378	2
0	19142	3379	1
0	19149	3380	1
0	19170	3384	3
0	19176	3385	4
0	19186	3386	5
0	19202	3388	1
0	19208	3389	2
0	19261	3402	1
0	19271	3403	1
0	19284	3406	1
0	19297	3407	1
0	19325	3410	1
0	19359	3414	2
0	19369	3415	2
0	19398	3421	1
0	19405	3422	1
0	19419	3424	1
0	19437	3428	1
0	19460	3433	1
0	19480	3437	1
0	19499	3440	1
0	19508	3441	2
0	19538	3445	4
0	19549	3446	4
0	19558	3447	4
0	19569	3448	4
0	19579	3449	4
0	19603	3452	1
0	19637	3456	1
0	19648	3457	1
0	19667	3460	1
0	19686	3463	1
0	19716	3467	3
0	19727	3468	3
0	19750	3471	1
0	19763	3475	1
0	19772	3477	1
0	19779	3478	1
0	19786	3479	1
0	19797	3480	1
0	19806	3481	2
0	19815	3482	2
0	19846	3486	4
0	19855	3487	5
0	19863	3488	4
0	19869	3489	4
0	19875	3490	3
0	19884	3491	4
0	19893	3492	1
0	19918	3497	1
0	19938	3501	1
0	19989	3510	1
0	20009	3514	2
0	20016	3515	2
0	20027	3516	2
0	20040	3517	2
0	20052	3518	1
0	20063	3519	1
0	20109	3525	1
0	20120	3526	1
0	20149	3532	1
0	20156	3533	1
0	20204	3543	1
0	20216	3545	1
0	20223	3546	1
0	20252	3553	1
0	20266	3555	1
0	20273	3556	1
0	20280	3557	1
0	20287	3558	1
0	20298	3560	1
0	20313	3562	1
0	20330	3566	5
0	20337	3567	2
0	20344	3568	2
0	20350	3569	2
0	20382	3573	1
0	20393	3574	1
0	20409	3576	1
0	20443	3583	1
0	20454	3585	1
0	20470	3588	1
0	20493	3592	4
0	20499	3593	3
0	20509	3594	1
0	20525	3597	1
0	20534	3598	2
0	20602	3611	1
0	20612	3612	1
0	20642	3616	1
0	20666	3619	1
0	20701	3624	1
0	20722	3628	4
0	20729	3629	5
0	20738	3630	3
0	20751	3631	3
0	20767	3633	1
0	20783	3636	1
0	20811	3641	1
0	20822	3644	1
0	20865	3657	1
0	20888	3662	1
0	20920	3669	1
0	20942	3672	1
0	20951	3673	2
0	20959	3674	1
0	20965	3675	2
0	20972	3676	1
0	20984	3678	1
0	20993	3679	2
0	21009	3681	1
0	21021	3683	1
0	21048	3687	1
0	21058	3688	2
0	21065	3689	2
0	21075	3690	2
0	21114	3696	1
0	21120	3697	2
0	21130	3698	1
0	21150	3702	1
0	21174	3708	1
0	21194	3713	1
0	21227	3719	1
0	21252	3725	1
0	21274	3731	1
0	21287	3735	1
0	21294	3736	1
0	21311	3739	1
0	21317	3740	2
0	21329	3742	1
0	21347	3744	1
0	21371	3751	1
0	21390	3755	4
0	21396	3756	5
0	21406	3757	4
0	21429	3763	1
0	21436	3764	1
0	21450	3766	1
0	21464	3768	1
0	21473	3770	1
0	21490	3772	1
0	21500	3773	2
0	21513	3777	5
0	21560	3787	1
0	21587	3792	1
0	21599	3793	2
0	21610	3794	2
0	21644	3805	1
0	21651	3806	1
0	21658	3807	1
0	21675	3812	1
0	21694	3815	1
0	21709	3819	2
0	21718	3820	2
0	21731	3823	1
0	21751	3828	1
0	21760	3830	1
0	21768	3831	1
0	21774	3832	2
0	21808	3838	1
0	21851	3844	1
0	21863	3845	2
0	21896	3849	4
0	21924	3854	1
0	21954	3860	1
0	21977	3863	1
0	22019	3870	1
0	22031	3871	1
0	22051	3874	1
0	22070	3876	1
0	22084	3878	1
0	22096	3879	1
0	22121	3883	1
0	22142	3887	1
0	22148	3888	2
0	22181	3893	1
0	22191	3894	2
0	22197	3895	2
0	22209	3896	1
0	22219	3897	2
0	22235	3899	1
0	22254	3902	1
0	22276	3906	5
0	22285	3907	5
0	22317	3913	1
0	22333	3915	1
0	22354	3919	1
0	22374	3923	1
0	22385	3925	1
0	22399	3927	1
0	22411	3928	1
0	22425	3931	1
0	22470	3940	1
0	22476	3941	2
0	22494	3944	1
0	22515	3948	1
0	22524	3950	1
0	22531	3951	1
0	22545	3953	1
0	22571	3961	1
0	22582	3962	1
0	22595	3963	1
0	22628	3967	4
0	22639	3968	1
0	22665	3971	1
0	22688	3974	1
0	22705	3976	1
0	22729	3982	1
0	22736	3983	1
0	22746	3984	1
0	22760	3985	1
0	22786	3989	1
0	22835	3997	1
0	22844	3999	1
0	22851	4000	1
0	22859	4001	1
0	22865	4002	2
0	22874	4004	1
0	22908	4011	1
0	22960	4021	1
0	22974	4024	1
0	22990	4027	1
0	23015	4031	3
0	23021	4032	3
0	23041	4037	1
0	23050	4039	1
0	23063	4043	1
0	23094	4051	1
0	23110	4054	1
0	23144	4061	1
0	23183	4068	1
0	23214	4075	1
0	23239	4079	3
0	23250	4080	1
0	23260	4081	1
0	23273	4084	1
0	23290	4088	1
0	23296	4089	2
0	23303	4090	1
0	23329	4093	1
0	23359	4098	1
0	23366	4099	1
0	23389	4103	1
0	23400	4104	2
0	23409	4105	2
0	23434	4110	1
0	23441	4111	1
0	23457	4114	1
0	23464	4115	1
0	23486	4120	1
0	23504	4125	1
0	23528	4129	1
0	23547	4133	5
0	23553	4134	5
0	23564	4137	1
0	23575	4139	1
0	23585	4140	1
0	23596	4142	1
0	23645	4150	1
0	23668	4153	1
0	23705	4159	1
0	23724	4162	1
0	23738	4166	1
0	23801	4178	1
0	23833	4182	1
0	23858	4187	1
0	23876	4189	1
0	23886	4190	1
0	23903	4192	1
0	23925	4196	1
0	23937	4198	1
0	23949	4200	1
0	23981	4204	5
0	23991	4205	5
0	24004	4206	6
0	24027	4209	1
0	24044	4212	1
0	24064	4216	1
0	24079	4219	1
0	24094	4220	1
0	24119	4223	1
0	24149	4227	1
0	24192	4237	1
0	24228	4245	1
0	24267	4251	1
0	24279	4253	1
0	24302	4259	1
0	24308	4260	2
0	24317	4262	1
0	24327	4263	1
0	24341	4265	1
0	24352	4266	1
0	24369	4270	1
0	24392	4273	1
0	24402	4274	1
0	24412	4275	1
0	24421	4276	1
0	24440	4279	1
0	24449	4280	2
0	24467	4283	1
0	24477	4284	1
0	24504	4295	1
0	24522	4299	2
0	24533	4300	3
0	24542	4301	3
0	24580	4310	1
0	24612	4316	1
0	24619	4317	1
0	24646	4322	1
0	24656	4323	1
0	24712	4336	1
0	24730	4339	1
0	24747	4343	2
0	24775	4347	1
0	24804	4353	1
0	24828	4356	1
0	24837	4358	1
0	24847	4359	1
0	24860	4361	1
0	24875	4363	1
0	24886	4364	2
0	24898	4365	1
0	24927	4369	1
0	24959	4372	1
0	24983	4375	1
0	25003	4377	1
0	25027	4380	1
0	25072	4387	1
0	25079	4388	2
0	25089	4389	2
0	25100	4390	1
0	25137	4395	1
0	25172	4402	1
0	25190	4406	1
0	25221	4410	1
0	25232	4411	2
0	25245	4412	2
0	25255	4413	2
0	25265	4414	3
0	25275	4415	4
0	25293	4417	1
0	25302	4418	2
0	25325	4422	4
0	25331	4423	5
0	25337	4424	5
0	25365	4428	1
0	25383	4431	1
0	25393	4432	1
0	25417	4439	1
0	25435	4442	1
0	25451	4444	1
0	25489	4450	1
0	25518	4454	4
0	25537	4460	1
0	25567	4468	1
0	25574	4469	2
0	25581	4470	2
0	25587	4471	2
0	25600	4474	1
0	25633	4478	1
0	25650	4480	1
0	25661	4481	2
0	25692	4485	4
0	25698	4486	2
0	25708	4487	1
0	25722	4490	1
0	25728	4491	2
0	25746	4494	1
0	25756	4495	1
0	25763	4496	1
0	25770	4497	1
0	25779	4499	1
0	25803	4503	4
0	25827	4506	1
0	25838	4507	2
0	25855	4509	1
0	25869	4511	1
0	25884	4513	1
0	25893	4514	2
0	25905	4515	1
0	25916	4517	1
0	25962	4527	1
0	25981	4531	5
0	25987	4532	3
0	26015	4540	1
0	26028	4542	1
0	26038	4543	2
0	26049	4544	1
0	26066	4546	1
0	26118	4553	1
0	26163	4560	1
0	26173	4562	1
0	26198	4566	5
0	26207	4567	3
0	26219	4568	3
0	26227	4569	2
0	26234	4570	1
0	26250	4572	1
0	26260	4573	1
0	26297	4578	1
0	26325	4582	1
0	26367	4589	1
0	26402	4593	4
0	26413	4594	3
0	26424	4595	3
0	26435	4596	3
0	26444	4597	3
0	26462	4601	1
0	26475	4603	1
0	26486	4604	2
0	26505	4606	1
0	26521	4608	1
0	26538	4612	2
0	26547	4613	2
0	26554	4614	1
0	26568	4617	1
0	26577	4618	2
0	26589	4621	1
0	26602	4622	2
0	26612	4623	2
0	26659	4634	1
0	26670	4637	1
0	26712	4644	1
0	26722	4645	1
0	26744	4651	1
0	26782	4656	1
0	26791	4657	2
0	26819	4666	1
0	26905	4682	1
0	26923	4684	1
0	26944	4686	1
0	26955	4687	2
0	26994	4692	1
0	27029	4697	1
0	27046	4699	1
0	27062	4702	1
0	27089	4713	1
0	27096	4714	1
0	27115	4721	1
0	27133	4724	1
0	27144	4725	1
0	27150	4726	2
0	27164	4730	3
0	27171	4731	1
0	27183	4732	1
0	27240	4742	1
0	27263	4747	1
0	27283	4750	1
0	27293	4751	2
0	27307	4754	1
0	27318	4755	1
0	27329	4756	1
0	27352	4760	1
0	27382	4765	1
0	27411	4769	1
0	27434	4773	1
0	27444	4774	2
0	27454	4775	2
0	27466	4776	2
0	27501	4783	1
0	27525	4786	1
0	27578	4798	1
0	27634	4809	1
0	27660	4815	1
0	27710	4822	1
0	27723	4825	1
0	27735	4827	1
0	27747	4828	1
0	27757	4829	2
0	27766	4830	1
0	27795	4837	1
0	27815	4841	1
0	27842	4845	4
0	27856	4847	1
0	27870	4851	1
0	27879	4852	2
0	27904	4855	1
0	27929	4860	1
0	27963	4868	1
0	27973	4869	1
0	27982	4870	1
0	28020	4880	1
0	28046	4884	2
0	28085	4889	1
0	28109	4893	1
0	28136	4898	1
0	28146	4899	1
0	28158	4901	1
0	28169	4902	1
0	28181	4904	1
0	28191	4905	1
0	28200	4906	1
0	28229	4910	2
0	28240	4911	2
0	28286	4917	1
0	28304	4919	1
0	28327	4923	1
0	28365	4933	1
0	28372	4934	1
0	28412	4942	1
0	28436	4945	1
0	28454	4947	1
0	28478	4951	5
0	28484	4952	5
0	28499	4957	1
0	28521	4961	1
0	28547	4964	1
0	28558	4965	2
0	28569	4966	2
0	28581	4968	1
0	28637	4981	1
0	28693	4991	1
0	28711	4995	5
0	28718	4996	1
0	28730	4999	1
0	28736	5000	2
1	2414	401	1
1	2414	401	0
1	2422	402	1
1	2423	402	2
1	2447	405	1
1	2458	406	0
1	2471	409	1
1	2471	409	0
1	2533	420	1
1	2533	420	0
1	2538	421	1
1	2540	421	0
1	2545	422	1
1	2547	422	0
1	2552	423	1
1	2553	423	2
1	2555	423	1
1	2561	424	0
1	2573	426	1
1	2573	426	0
1	2596	429	1
1	2596	429	0
1	2613	431	1
1	2629	433	0
1	2630	433	1
1	2641	434	0
1	2650	435	1
1	2651	435	2
1	2654	435	1
1	2664	436	0
1	2671	437	1
1	2674	437	0
1	2698	442	1
1	2698	442	0
1	2727	449	1
1	2727	449	0
1	2732	450	1
1	2736	450	0
1	2765	454	1
1	2765	454	0
1	2783	457	1
1	2783	457	0
1	2784	457	1
1	2798	460	2
1	2806	461	1
1	2816	462	0
1	2868	474	1
1	2868	474	0
1	2869	474	1
1	2875	475	0
1	2880	476	1
1	2882	476	0
1	2922	489	1
1	2922	489	0
1	2923	489	1
1	2933	490	0
1	2949	493	1
1	2949	493	0
1	2962	496	1
1	2962	496	0
1	2967	497	1
1	2969	497	0
1	2979	500	1
1	2983	501	0
1	3008	504	1
1	3008	504	0
1	3017	505	1
1	3020	505	0
1	3037	508	1
1	3037	508	0
1	3049	510	1
1	3049	510	0
1	3065	512	1
1	3065	512	0
1	3066	512	1
1	3075	513	0
1	3086	515	1
1	3086	515	0
1	3110	518	1
1	3110	518	0
1	3117	519	1
1	3118	519	2
1	3120	519	1
1	3125	520	2
1	3129	521	3
1	3138	523	2
1	3147	524	1
1	3158	525	0
1	3192	532	1
1	3192	532	0
1	3217	535	1
1	3217	535	0
1	3218	535	1
1	3228	536	0
1	3247	540	1
1	3247	540	0
1	3258	543	1
1	3258	543	0
1	3272	546	1
1	3272	546	0
1	3316	557	1
1	3316	557	0
1	3332	559	1
1	3348	561	0
1	3382	567	1
1	3382	567	0
1	3391	569	1
1	3391	569	0
1	3396	570	1
1	3398	570	0
1	3403	571	1
1	3407	571	0
1	3422	573	1
1	3422	573	0
1	3438	576	1
1	3438	576	0
1	3448	577	1
1	3450	577	0
1	3464	579	1
1	3464	579	0
1	3525	591	1
1	3525	591	0
1	3558	597	1
1	3558	597	0
1	3587	604	1
1	3587	604	0
1	3592	605	1
1	3594	605	0
1	3599	606	1
1	3600	606	2
1	3602	606	1
1	3608	607	0
1	3637	612	1
1	3637	612	0
1	3647	613	1
1	3649	613	0
1	3677	619	1
1	3677	619	0
1	3689	621	1
1	3689	621	0
1	3713	627	1
1	3713	627	0
1	3732	632	1
1	3732	632	0
1	3784	643	1
1	3784	643	0
1	3809	648	1
1	3809	648	0
1	3810	648	1
1	3818	649	0
1	3827	651	1
1	3827	651	0
1	3875	663	1
1	3875	663	0
1	3900	666	1
1	3900	666	0
1	3913	669	1
1	3913	669	0
1	3918	670	1
1	3920	670	0
1	3941	674	1
1	3941	674	0
1	3942	674	1
1	3960	676	2
1	3965	677	3
1	3969	678	2
1	3981	679	1
1	3990	680	2
1	3993	680	1
1	4003	681	0
1	4040	687	1
1	4040	687	0
1	4057	691	1
1	4057	691	0
1	4084	694	1
1	4084	694	0
1	4085	694	1
1	4095	695	0
1	4119	699	1
1	4119	699	0
1	4128	701	1
1	4128	701	0
1	4156	705	1
1	4156	705	0
1	4178	708	1
1	4178	708	0
1	4207	715	1
1	4207	715	0
1	4218	718	1
1	4218	718	0
1	4223	719	1
1	4224	719	2
1	4226	719	1
1	4231	720	2
1	4233	720	1
1	4239	721	0
1	4248	723	1
1	4248	723	0
1	4253	724	1
1	4255	724	0
1	4278	728	1
1	4278	728	0
1	4279	728	1
1	4300	732	0
1	4327	738	1
1	4327	738	0
1	4345	741	1
1	4345	741	0
1	4350	742	1
1	4351	742	2
1	4353	742	1
1	4359	743	0
1	4364	744	1
1	4367	744	0
1	4382	747	1
1	4382	747	0
1	4419	753	1
1	4419	753	0
1	4433	756	1
1	4433	756	0
1	4464	760	1
1	4464	760	0
1	4473	761	1
1	4481	762	2
1	4493	764	1
1	4494	764	2
1	4499	765	3
1	4501	765	2
1	4508	766	1
1	4518	767	0
1	4527	769	1
1	4527	769	0
1	4538	772	1
1	4538	772	0
1	4556	776	1
1	4556	776	0
1	4564	777	1
1	4566	777	0
1	4591	781	1
1	4591	781	0
1	4596	782	1
1	4598	782	0
1	4606	784	1
1	4609	785	2
1	4613	786	1
1	4618	787	2
1	4619	787	3
1	4621	787	2
1	4627	788	1
1	4632	789	2
1	4636	789	1
1	4646	790	0
1	4659	792	1
1	4659	792	0
1	4676	794	1
1	4676	794	0
1	4677	794	1
1	4685	795	0
1	4706	799	1
1	4706	799	0
1	4717	801	1
1	4717	801	0
1	4738	806	1
1	4738	806	0
1	4752	808	1
1	4752	808	0
1	4753	808	1
1	4759	809	0
1	4768	811	1
1	4768	811	0
1	4773	812	1
1	4775	812	0
1	4784	814	1
1	4784	814	0
1	4793	815	1
1	4798	815	0
1	4807	816	1
1	4809	816	0
1	4826	818	1
1	4826	818	0
1	4861	825	1
1	4861	825	0
1	4866	826	1
1	4878	829	0
1	4885	830	1
1	4888	830	0
1	4907	835	1
1	4907	835	0
1	4932	840	1
1	4932	840	0
1	4937	841	1
1	4939	841	0
1	4955	845	1
1	4955	845	0
1	4973	848	1
1	4973	848	0
1	4983	849	1
1	4985	849	0
1	5022	855	1
1	5022	855	0
1	5055	862	1
1	5055	862	0
1	5056	862	1
1	5075	866	0
1	5084	868	1
1	5084	868	0
1	5099	871	1
1	5099	871	0
1	5140	879	1
1	5140	879	0
1	5150	880	1
1	5153	880	0
1	5170	882	1
1	5170	882	0
1	5187	887	1
1	5187	887	0
1	5198	890	1
1	5198	890	0
1	5211	894	1
1	5211	894	0
1	5219	895	1
1	5223	895	0
1	5243	898	1
1	5250	899	0
1	5288	907	1
1	5288	907	0
1	5310	913	1
1	5310	913	0
1	5318	914	1
1	5320	914	0
1	5340	918	1
1	5340	918	0
1	5341	918	1
1	5346	919	2
1	5348	919	1
1	5354	920	0
1	5379	925	1
1	5379	925	0
1	5390	928	1
1	5390	928	0
1	5391	928	1
1	5397	929	0
1	5520	958	1
1	5520	958	0
1	5529	959	1
1	5531	959	0
1	5549	962	1
1	5549	962	0
1	5569	967	1
1	5569	967	0
1	5593	974	1
1	5593	974	0
1	5610	976	1
1	5610	976	0
1	5625	978	1
1	5625	978	0
1	5640	980	1
1	5640	980	0
1	5641	980	1
1	5651	981	0
1	5676	988	1
1	5676	988	0
1	5702	993	1
1	5702	993	0
1	5720	997	1
1	5720	997	0
1	5729	998	1
1	5732	998	0
1	5768	1006	1
1	5768	1006	0
1	5773	1007	1
1	5775	1007	0
1	5784	1009	1
1	5784	1009	0
1	5789	1010	1
1	5791	1010	0
1	5830	1017	1
1	5830	1017	0
1	5835	1018	1
1	5839	1018	0
1	5860	1022	1
1	5860	1022	0
1	5876	1024	1
1	5881	1025	2
1	5885	1026	1
1	5893	1027	2
1	5895	1027	1
1	5903	1028	0
1	5948	1038	1
1	5948	1038	0
1	5961	1042	1
1	5961	1042	0
1	5966	1043	1
1	5969	1043	0
1	5985	1045	1
1	5985	1045	0
1	6019	1052	1
1	6019	1052	0
1	6029	1053	1
1	6031	1053	0
1	6099	1063	1
1	6099	1063	0
1	6100	1063	1
1	6109	1064	2
1	6117	1065	3
1	6118	1065	4
1	6133	1067	3
1	6134	1067	4
1	6144	1068	5
1	6147	1068	4
1	6157	1069	3
1	6165	1070	2
1	6171	1071	1
1	6177	1072	0
1	6192	1077	1
1	6192	1077	0
1	6236	1089	1
1	6236	1089	0
1	6241	1090	1
1	6243	1090	0
1	6248	1091	1
1	6250	1091	0
1	6273	1097	1
1	6273	1097	0
1	6284	1100	1
1	6284	1100	0
1	6297	1102	1
1	6297	1102	0
1	6312	1104	1
1	6312	1104	0
1	6330	1108	1
1	6330	1108	0
1	6351	1111	1
1	6351	1111	0
1	6419	1125	1
1	6419	1125	0
1	6435	1128	1
1	6435	1128	0
1	6436	1128	1
1	6445	1129	0
1	6482	1136	1
1	6482	1136	0
1	6505	1139	1
1	6514	1140	0
1	6539	1143	1
1	6539	1143	0
1	6561	1148	1
1	6561	1148	0
1	6577	1151	1
1	6577	1151	0
1	6582	1152	1
1	6584	1152	0
1	6634	1160	1
1	6634	1160	0
1	6656	1163	1
1	6656	1163	0
1	6661	1164	1
1	6664	1164	0
1	6680	1166	1
1	6680	1166	0
1	6702	1171	1
1	6702	1171	0
1	6780	1183	1
1	6780	1183	0
1	6828	1196	1
1	6828	1196	0
1	6845	1202	1
1	6845	1202	0
1	6854	1204	1
1	6854	1204	0
1	6893	1211	1
1	6893	1211	0
1	6898	1212	1
1	6899	1212	2
1	6900	1212	3
1	6902	1212	2
1	6908	1213	1
1	6913	1214	2
1	6916	1214	1
1	6926	1215	0
1	6931	1216	1
1	6933	1216	0
1	6970	1225	1
1	6970	1225	0
1	7008	1230	1
1	7008	1230	0
1	7025	1232	1
1	7025	1232	0
1	7026	1232	1
1	7037	1233	0
1	7076	1242	1
1	7076	1242	0
1	7088	1244	1
1	7088	1244	0
1	7136	1258	1
1	7136	1258	0
1	7170	1264	1
1	7170	1264	0
1	7171	1264	1
1	7177	1265	0
1	7195	1269	1
1	7195	1269	0
1	7213	1273	1
1	7213	1273	0
1	7242	1277	1
1	7242	1277	0
1	7247	1278	1
1	7249	1278	0
1	7268	1285	1
1	7268	1285	0
1	7288	1290	1
1	7288	1290	0
1	7289	1290	1
1	7299	1291	0
1	7324	1298	1
1	7324	1298	0
1	7343	1301	1
1	7343	1301	0
1	7358	1303	1
1	7358	1303	0
1	7391	1309	1
1	7391	1309	0
1	7399	1310	1
1	7419	1313	0
1	7420	1313	1
1	7432	1314	0
1	7441	1315	1
1	7443	1315	0
1	7502	1325	1
1	7502	1325	0
1	7509	1326	1
1	7511	1326	0
1	7516	1327	1
1	7518	1327	0
1	7527	1329	1
1	7527	1329	0
1	7568	1337	1
1	7568	1337	0
1	7573	1338	1
1	7575	1338	0
1	7584	1340	1
1	7584	1340	0
1	7602	1343	1
1	7608	1344	0
1	7621	1348	1
1	7621	1348	0
1	7633	1350	1
1	7633	1350	0
1	7640	1351	1
1	7642	1351	0
1	7654	1353	1
1	7654	1353	0
1	7668	1355	1
1	7668	1355	0
1	7675	1356	1
1	7677	1356	0
1	7686	1358	1
1	7686	1358	0
1	7691	1359	1
1	7693	1359	0
1	7716	1364	1
1	7716	1364	0
1	7727	1365	1
1	7736	1366	2