version 3
run Experimentos-248-20260508-20:05:48-29075
attr configname Experimentos
attr datetime 20260508-20:05:48
attr datetimef 20260508-200548
attr experiment Experimentos
attr inifile TwoQueues.ini
attr iterationvars "$p=0.6, $q=0.3, $Y=10, $m=2"
attr iterationvarsd p=0.6/q=0.3/Y=10/m=2
attr iterationvarsf p=0.6,q=0.3,Y=10,m=2-
attr measurement "$p=0.6, $q=0.3, $Y=10, $m=2"
attr network TwoQueues
attr processid 29075
attr repetition 8
attr replication #8
attr resultdir results
attr runnumber 248
attr seedset 248
itervar Y 10
itervar m 2
itervar p 0.6
itervar q 0.3
config description "Barrido completo de parámetros Proyecto 12"
config **.source1.p 0.6
config **.source1.q 0.2
config **.source2.p 0.6
config **.source2.q 0.3
config **.serverWithMaintenance.Y 10
config **.serverWithMaintenance.m 2
config network TwoQueues
config cpu-time-limit 5000s
config sim-time-limit 5000s
config warmup-period 400s
config repeat 20
config output-scalar-file results/Experimentos-p=0.6,q=0.3,Y=10,m=2--#8.sca
config output-vector-file results/Experimentos-p=0.6,q=0.3,Y=10,m=2--#8.vec
config **.vector-recording true

vector 0 TwoQueues.serverWithMaintenance residenceTime2:vector ETV
attr recordingmode vector
attr source delay2
attr title "Residence Time Class 2"
vector 1 TwoQueues.queue2 queueLengthStats:vector ETV
attr recordingmode vector
attr source qlen
attr title "Average Queue Length"
vector 2 TwoQueues.queue1 queueLengthStats:vector ETV
attr recordingmode vector
attr source qlen
attr title "Average Queue Length"
vector 3 TwoQueues.server residenceTime1:vector ETV
attr recordingmode vector
attr source delay1
attr title "Residence Time Class 1"
vector 4 TwoQueues.server throughputStats1:vector ETV
attr recordingmode vector
attr source throughput1
attr title "Throughput Class 1"
0	2673	400	4
0	2679	401	3
0	2726	408	1
0	2737	409	1
0	2777	417	1
0	2789	418	1
0	2842	425	1
0	2866	428	1
0	2920	435	1
0	2964	442	1
0	2994	448	1
0	3011	450	1
0	3022	451	1
0	3039	453	1
0	3076	458	1
0	3118	464	1
0	3146	469	1
0	3153	470	1
0	3167	474	1
0	3192	480	1
0	3254	490	1
0	3274	493	1
0	3294	495	1
0	3312	497	1
0	3367	504	1
0	3378	505	1
0	3389	506	1
0	3428	511	1
0	3445	514	1
0	3466	517	1
0	3503	523	1
0	3522	526	1
0	3543	529	1
0	3565	533	1
0	3575	534	2
0	3655	546	1
0	3664	547	2
0	3673	549	1
0	3700	553	1
0	3720	556	1
0	3737	558	1
0	3761	561	1
0	3772	562	1
0	3786	564	1
0	3805	566	1
0	3831	570	1
0	3847	573	1
0	3879	580	1
0	3938	588	1
0	3984	594	1
0	4041	604	1
0	4049	605	2
0	4055	606	2
0	4061	607	3
0	4068	608	1
0	4076	609	1
0	4083	610	2
0	4089	611	2
0	4110	616	1
0	4123	620	1
0	4135	622	1
0	4192	632	1
0	4203	633	1
0	4234	638	1
0	4252	640	1
0	4283	646	1
0	4294	647	2
0	4306	649	1
0	4332	654	1
0	4353	657	1
0	4370	659	1
0	4386	661	1
0	4395	663	1
0	4423	669	1
0	4433	670	2
0	4442	671	2
0	4451	672	2
0	4464	673	1
0	4491	676	1
0	4511	678	1
0	4524	679	2
0	4542	681	1
0	4560	683	1
0	4604	688	1
0	4711	703	1
0	4723	704	2
0	4734	705	1
0	4765	710	1
0	4790	713	1
0	4831	718	1
0	4874	724	1
0	4927	733	1
0	4943	737	1
0	4983	742	1
0	5027	751	1
0	5068	756	1
0	5086	758	1
0	5098	759	1
0	5129	762	3
0	5141	763	3
0	5153	764	2
0	5186	768	1
0	5228	774	1
0	5304	788	1
0	5328	791	1
0	5357	795	1
0	5371	798	1
0	5380	799	2
0	5399	803	1
0	5483	818	1
0	5500	820	1
0	5542	825	1
0	5554	826	2
0	5564	827	2
0	5589	833	1
0	5599	834	1
0	5635	838	1
0	5647	839	2
0	5671	842	1
0	5689	844	1
0	5708	847	1
0	5718	848	1
0	5735	849	1
0	5758	852	1
0	5770	853	1
0	5793	856	1
0	5808	857	1
0	5885	868	1
0	6003	885	1
0	6012	886	2
0	6019	887	1
0	6031	889	1
0	6042	890	2
0	6052	891	1
0	6079	894	1
0	6090	895	2
0	6100	896	3
0	6110	897	3
0	6129	900	4
0	6138	901	4
0	6155	903	1
0	6180	906	1
0	6190	907	1
0	6200	909	1
0	6207	910	2
0	6217	911	2
0	6226	912	2
0	6232	913	2
0	6244	916	3
0	6259	917	1
0	6271	918	2
0	6283	919	1
0	6303	921	1
0	6313	922	2
0	6331	924	1
0	6353	926	1
0	6363	927	2
0	6380	929	1
0	6405	932	2
0	6453	939	1
0	6483	944	1
0	6493	945	1
0	6589	966	1
0	6600	967	2
0	6615	968	2
0	6625	969	2
0	6636	970	1
0	6647	971	1
0	6664	974	1
0	6674	975	1
0	6685	978	1
0	6697	981	1
0	6706	982	2
0	6716	983	2
0	6724	984	3
0	6733	985	4
0	6741	986	4
0	6752	988	1
0	6774	991	3
0	6784	992	4
0	6796	993	4
0	6869	1003	1
0	6881	1004	1
0	6968	1018	1
0	6996	1021	1
0	7059	1029	1
0	7077	1031	1
0	7088	1032	2
0	7115	1035	1
0	7125	1036	2
0	7135	1037	3
0	7179	1043	1
0	7192	1044	1
0	7201	1045	2
0	7209	1046	3
0	7218	1047	4
0	7260	1055	1
0	7300	1062	1
0	7312	1065	3
0	7335	1069	1
0	7395	1078	1
0	7405	1079	1
0	7430	1083	1
0	7487	1094	1
0	7540	1102	1
0	7564	1105	1
0	7609	1116	1
0	7646	1121	1
0	7675	1124	2
0	7685	1125	2
0	7831	1145	1
0	7842	1146	1
0	7855	1148	1
0	7862	1149	2
0	7868	1150	2
0	7888	1153	1
0	7912	1156	1
0	7934	1159	1
0	7955	1162	3
0	7965	1163	1
0	7975	1164	1
0	8018	1171	1
0	8051	1175	1
0	8087	1184	1
0	8112	1189	1
0	8123	1190	1
0	8148	1194	1
0	8157	1195	2
0	8217	1206	1
0	8224	1207	1
0	8234	1208	1
0	8277	1216	1
0	8288	1217	1
0	8314	1220	1
0	8338	1224	1
0	8349	1226	1
0	8365	1230	1
0	8408	1241	1
0	8424	1244	4
0	8461	1251	1
0	8472	1252	1
0	8513	1260	1
0	8545	1265	1
0	8570	1268	1
0	8579	1269	2
0	8590	1271	1
0	8609	1274	1
0	8616	1275	1
0	8643	1279	1
0	8676	1283	1
0	8717	1290	1
0	8731	1292	1
0	8743	1294	1
0	8770	1298	1
0	8789	1300	1
0	8799	1301	1
0	8826	1306	1
0	8836	1307	1
0	8862	1310	3
0	8871	1311	3
0	8877	1312	4
0	8892	1313	1
0	8934	1319	1
0	8962	1326	1
0	9004	1332	1
0	9025	1336	1
0	9038	1340	1
0	9070	1346	1
0	9091	1350	1
0	9143	1357	1
0	9169	1360	1
0	9200	1364	1
0	9269	1376	1
0	9281	1377	1
0	9312	1384	1
0	9350	1393	1
0	9371	1396	1
0	9385	1398	1
0	9407	1401	2
0	9418	1402	2
0	9428	1403	2
0	9448	1405	1
0	9459	1406	2
0	9471	1408	1
0	9482	1409	1
0	9497	1410	2
0	9507	1411	2
0	9518	1412	3
0	9541	1416	1
0	9577	1420	1
0	9649	1430	1
0	9667	1433	1
0	9680	1435	1
0	9699	1437	1
0	9744	1442	1
0	9803	1451	1
0	9830	1456	1
0	9840	1457	1
0	9869	1460	2
0	9879	1461	3
0	9890	1462	3
0	9901	1463	2
0	9910	1464	2
0	9980	1473	1
0	9990	1474	2
0	10009	1476	1
0	10021	1477	1
0	10040	1479	1
0	10066	1482	1
0	10078	1483	1
0	10090	1484	1
0	10108	1486	1
0	10119	1487	1
0	10131	1489	1
0	10140	1491	1
0	10151	1494	1
0	10173	1500	1
0	10196	1504	1
0	10216	1507	3
0	10227	1508	2
0	10237	1509	1
0	10244	1510	1
0	10255	1512	1
0	10267	1514	1
0	10274	1515	1
0	10281	1516	1
0	10293	1518	1
0	10304	1519	1
0	10327	1522	3
0	10336	1523	2
0	10349	1526	1
0	10359	1527	1
0	10389	1531	1
0	10409	1534	1
0	10419	1535	2
0	10434	1537	1
0	10444	1538	1
0	10458	1539	1
0	10480	1542	4
0	10497	1544	1
0	10572	1554	1
0	10584	1555	1
0	10605	1558	1
0	10617	1559	1
0	10626	1560	2
0	10646	1564	1
0	10674	1567	1
0	10712	1573	1
0	10740	1579	1
0	10754	1581	1
0	10771	1583	1
0	10799	1586	1
0	10809	1587	2
0	10827	1590	1
0	10845	1594	1
0	10862	1596	1
0	10919	1603	1
0	10942	1606	1
0	10972	1609	2
0	10984	1610	3
0	10995	1611	3
0	11006	1612	3
0	11022	1613	4
0	11032	1614	2
0	11049	1616	1
0	11071	1619	1
0	11080	1621	1
0	11128	1630	1
0	11202	1640	1
0	11267	1649	1
0	11307	1654	1
0	11356	1661	1
0	11397	1666	1
0	11416	1668	1
0	11433	1670	1
0	11474	1676	1
0	11494	1678	1
0	11507	1679	2
0	11534	1682	5
0	11582	1688	1
0	11611	1692	1
0	11625	1695	1
0	11635	1696	1
0	11657	1700	1
0	11722	1709	1
0	11760	1714	1
0	11854	1731	1
0	11864	1732	1
0	11890	1735	3
0	11899	1736	3
0	11906	1737	3
0	11912	1738	2
0	11937	1742	1
0	11948	1743	1
0	11955	1744	2
0	11963	1745	2
0	11974	1746	2
0	11982	1747	3
0	11993	1750	5
0	12002	1751	6
0	12015	1754	1
0	12050	1759	1
0	12061	1760	1
0	12092	1764	1
0	12138	1773	1
0	12150	1775	1
0	12169	1777	1
0	12260	1790	1
0	12287	1793	2
0	12298	1794	3
0	12327	1798	1
0	12387	1806	1
0	12408	1809	1
0	12420	1811	1
0	12445	1816	1
0	12455	1817	1
0	12468	1818	1
0	12531	1827	1
0	12557	1830	4
0	12680	1852	1
0	12706	1856	1
0	12733	1861	1
0	12745	1863	1
0	12766	1871	1
0	12773	1872	1
0	12808	1876	1
0	12834	1879	1
0	12845	1880	2
0	12879	1884	1
0	12896	1886	1
0	12913	1888	1
0	12925	1889	1
0	12935	1890	1
0	12944	1892	1
0	12968	1895	1
0	12979	1896	1
0	13039	1905	1
0	13050	1906	2
0	13076	1910	1
0	13138	1925	1
0	13148	1926	1
0	13158	1927	1
0	13171	1928	1
0	13183	1929	2
0	13195	1930	1
0	13206	1931	2
0	13278	1942	1
0	13288	1943	2
0	13313	1946	4
0	13324	1947	1
0	13335	1948	1
0	13345	1949	1
0	13362	1951	1
0	13406	1957	1
0	13442	1964	1
0	13456	1966	1
0	13477	1970	1
0	13486	1971	1
0	13511	1974	4
0	13521	1975	5
0	13530	1976	3
0	13571	1982	1
0	13582	1983	1
0	13603	1985	1
0	13614	1986	1
0	13647	1990	1
0	13680	1995	1
0	13690	1996	1
0	13702	1999	2
0	13716	2001	1
0	13760	2007	1
0	13817	2014	1
0	13840	2017	1
0	13928	2033	1
0	13954	2036	1
0	14001	2042	1
0	14023	2046	1
0	14042	2049	1
0	14067	2052	2
0	14076	2053	2
0	14093	2056	1
0	14103	2057	2
0	14115	2058	2
0	14184	2072	1
0	14212	2074	1
0	14223	2075	1
0	14241	2077	1
0	14290	2084	1
0	14317	2087	2
0	14327	2088	2
0	14368	2093	1
0	14378	2094	2
0	14389	2095	3
0	14400	2096	2
0	14428	2101	1
0	14454	2105	1
0	14465	2106	1
0	14487	2109	1
0	14523	2113	1
0	14533	2114	2
0	14552	2116	1
0	14573	2118	1
0	14583	2119	2
0	14608	2122	1
0	14620	2123	1
0	14698	2137	1
0	14704	2138	2
0	14710	2139	3
0	14724	2142	1
0	14744	2144	1
0	14758	2145	1
0	14769	2146	1
0	14787	2148	1
0	14856	2158	1
0	14886	2164	1
0	14939	2172	1
0	14965	2179	1
0	14978	2180	2
0	15001	2183	4
0	15007	2184	5
0	15025	2187	1
0	15066	2195	1
0	15085	2199	1
0	15120	2203	1
0	15160	2209	1
0	15201	2216	1
0	15264	2226	1
0	15282	2229	1
0	15303	2233	1
0	15315	2235	1
0	15322	2236	1
0	15347	2241	1
0	15390	2249	1
0	15400	2250	2
0	15411	2251	3
0	15419	2252	2
0	15426	2253	1
0	15443	2255	1
0	15464	2258	1
0	15499	2264	1
0	15509	2265	1
0	15518	2266	1
0	15551	2275	1
0	15558	2276	1
0	15588	2281	1
0	15606	2283	1
0	15628	2286	1
0	15649	2291	1
0	15668	2294	4
0	15677	2295	3
0	15715	2301	1
0	15725	2302	2
0	15742	2304	1
0	15752	2305	1
0	15777	2310	1
0	15814	2317	1
0	15830	2319	1
0	15873	2324	1
0	15910	2329	1
0	15934	2333	1
0	15944	2334	1
0	16061	2350	1
0	16086	2353	1
0	16098	2354	1
0	16110	2355	1
0	16121	2356	2
0	16137	2357	1
0	16154	2359	1
0	16178	2362	1
0	16210	2366	1
0	16221	2367	1
0	16239	2369	1
0	16251	2370	1
0	16264	2371	1
0	16275	2372	2
0	16296	2376	1
0	16317	2379	1
0	16351	2385	1
0	16370	2388	3
0	16383	2389	3
0	16394	2390	4
0	16462	2401	1
0	16584	2420	1
0	16595	2421	1
0	16624	2426	1
0	16646	2429	1
0	16657	2430	2
0	16701	2435	1
0	16736	2439	1
0	16774	2444	1
0	16786	2445	1
0	16798	2446	1
0	16816	2448	1
0	16828	2449	1
0	16839	2450	1
0	16881	2455	1
0	16906	2458	1
0	16918	2459	2
0	16945	2464	1
0	16970	2469	1
0	16988	2473	1
0	16997	2475	1
0	17004	2476	1
0	17057	2488	1
0	17071	2489	1
0	17089	2491	1
0	17100	2492	2
0	17111	2493	2
0	17150	2501	1
0	17162	2503	1
0	17171	2504	2
0	17190	2507	1
0	17201	2508	1
0	17212	2509	1
0	17225	2510	1
0	17249	2513	1
0	17266	2515	1
0	17299	2523	1
0	17341	2531	1
0	17370	2536	1
0	17390	2538	1
0	17445	2548	1
0	17455	2549	1
0	17484	2555	1
0	17493	2557	1
0	17507	2559	1
0	17553	2566	1
0	17582	2570	1
0	17596	2573	4
0	17630	2579	1
0	17643	2581	1
0	17655	2582	2
0	17667	2583	1
0	17703	2588	1
0	17752	2596	1
0	17759	2597	1
0	17802	2604	1
0	17852	2611	1
0	17877	2618	1
0	17893	2620	1
0	17903	2621	1
0	17939	2629	1
0	17957	2633	1
0	17984	2639	1
0	18043	2650	1
0	18057	2651	1
0	18068	2652	1
0	18079	2653	1
0	18112	2657	1
0	18118	2658	2
0	18143	2662	1
0	18164	2667	1
0	18176	2668	1
0	18196	2671	1
0	18208	2673	1
0	18245	2680	1
0	18284	2686	1
0	18315	2690	1
0	18344	2693	1
0	18373	2696	1
0	18397	2699	1
0	18415	2701	1
0	18447	2705	1
0	18460	2706	1
0	18470	2707	2
0	18490	2711	1
0	18497	2712	1
0	18517	2717	1
0	18567	2724	1
0	18580	2728	1
0	18587	2729	1
0	18701	2746	1
0	18720	2748	1
0	18730	2749	2
0	18746	2751	1
0	18769	2754	1
0	18808	2760	1
0	18818	2761	2
0	18863	2768	1
0	18875	2770	1
0	18891	2772	1
0	18910	2775	1
0	18921	2776	1
0	18941	2778	1
0	18992	2785	1
0	19042	2793	1
0	19053	2794	2
0	19089	2798	1
0	19122	2801	3
0	19132	2802	4
0	19143	2803	3
0	19155	2804	2
0	19165	2805	2
0	19261	2822	1
0	19267	2823	2
0	19276	2825	1
0	19296	2830	1
0	19303	2831	1
0	19320	2834	1
0	19379	2846	1
0	19434	2856	1
0	19450	2858	1
0	19513	2871	1
0	19527	2872	2
0	19538	2873	2
0	19548	2874	3
0	19571	2877	1
0	19578	2878	1
0	19596	2881	3
0	19602	2882	2
0	19615	2886	1
0	19631	2888	1
0	19650	2891	1
0	19678	2899	1
0	19713	2905	1
0	19720	2906	1
0	19744	2909	1
0	19769	2912	1
0	19790	2915	1
0	19800	2916	2
0	19832	2920	1
0	19841	2921	2
0	19852	2922	1
0	19860	2923	2
0	19870	2925	1
0	19879	2926	2
0	19891	2927	1
0	19904	2928	1
0	19930	2931	3
0	19939	2932	3
0	19950	2934	1
0	19962	2936	1
0	19975	2940	1
0	19986	2943	1
0	20004	2946	1
0	20014	2947	1
0	20024	2948	1
0	20035	2950	1
0	20066	2960	1
0	20091	2965	1
0	20115	2968	1
0	20193	2979	1
0	20213	2981	1
0	20238	2984	1
0	20263	2987	1
0	20274	2988	1
0	20314	2997	1
0	20347	3001	1
0	20374	3004	1
0	20399	3007	1
0	20435	3011	1
0	20454	3013	1
0	20464	3014	2
0	20483	3016	1
0	20582	3030	1
0	20609	3033	1
0	20619	3034	2
0	20657	3039	1
0	20677	3042	3
0	20686	3044	1
0	20732	3051	1
0	20742	3052	1
0	20779	3058	1
0	20790	3061	1
0	20808	3065	1
0	20817	3067	1
0	20828	3070	1
0	20839	3073	1
0	20851	3076	3
0	20879	3080	1
0	20895	3082	1
0	20950	3093	1
0	20961	3094	1
0	21005	3099	1
0	21028	3102	1
0	21040	3103	1
0	21079	3108	1
0	21112	3112	1
0	21137	3115	3
0	21192	3124	1
0	21238	3130	1
0	21323	3142	1
0	21357	3146	1
0	21374	3148	1
0	21395	3150	1
0	21447	3156	1
0	21458	3157	2
0	21469	3158	2
0	21497	3161	4
0	21508	3162	2
0	21518	3163	2
0	21530	3164	1
0	21542	3165	2
0	21552	3166	2
0	21564	3167	1
0	21575	3168	2
0	21586	3169	1
0	21614	3173	1
0	21635	3179	1
0	21694	3192	1
0	21710	3194	1
0	21726	3198	1
0	21738	3199	1
0	21750	3200	1
0	21785	3204	1
0	21815	3208	1
0	21837	3211	1
0	21848	3212	1
0	21866	3215	3
0	21877	3216	1
0	21896	3220	1
0	21926	3224	1
0	21937	3227	1
0	21971	3234	1
0	21978	3235	1
0	21988	3236	1
0	22001	3237	1
0	22044	3243	1
0	22061	3246	2
0	22071	3247	1
0	22081	3248	1
0	22090	3249	2
0	22105	3251	1
0	22123	3253	1
0	22143	3256	1
0	22188	3263	1
0	22206	3265	1
0	22331	3285	1
0	22352	3288	3
0	22361	3289	3
0	22391	3297	1
0	22401	3298	2
0	22413	3299	3
0	22421	3300	3
0	22434	3301	3
0	22450	3303	1
0	22468	3305	1
0	22479	3306	2
0	22494	3309	2
0	22504	3310	1
0	22526	3315	1
0	22538	3316	1
0	22556	3318	1
0	22666	3334	1
0	22681	3335	1
0	22691	3336	2
0	22702	3337	1
0	22722	3339	1
0	22741	3342	3
0	22766	3346	1
0	22782	3348	1
0	22793	3349	2
0	22811	3352	1
0	22831	3355	1
0	22849	3357	1
0	22865	3359	1
0	22872	3360	1
0	22886	3362	1
0	22905	3365	1
0	22915	3366	1
0	22922	3367	1
0	22952	3372	1
0	23001	3379	1
0	23011	3380	1
0	23025	3382	1
0	23037	3383	1
0	23046	3384	2
0	23073	3389	1
0	23110	3394	1
0	23119	3395	2
0	23172	3405	1
0	23190	3407	1
0	23201	3408	1
0	23220	3410	1
0	23242	3412	1
0	23253	3413	1
0	23355	3428	1
0	23362	3429	1
0	23388	3432	2
0	23398	3433	2
0	23456	3442	1
0	23533	3454	1
0	23545	3455	1
0	23606	3463	1
0	23619	3464	1
0	23649	3468	1
0	23668	3470	1
0	23679	3471	1
0	23706	3474	1
0	23722	3478	1
0	23736	3480	1
0	23749	3482	1
0	23767	3484	1
0	23835	3497	1
0	23869	3503	1
0	23886	3505	1
0	23893	3506	1
0	23928	3510	1
0	23994	3519	1
0	24007	3520	2
0	24018	3521	1
0	24051	3527	1
0	24073	3532	1
0	24089	3536	1
0	24099	3537	1
0	24112	3538	1
0	24128	3540	1
0	24137	3541	2
0	24163	3544	3
0	24173	3545	3
0	24183	3546	3
0	24201	3548	1
0	24291	3560	1
0	24310	3562	1
0	24320	3563	2
0	24335	3564	3
0	24346	3565	2
0	24357	3566	3
0	24383	3569	5
0	24394	3570	5
0	24405	3571	5
0	24414	3572	3
0	24420	3573	3
0	24429	3575	1
0	24457	3580	1
0	24485	3583	1
0	24496	3584	1
0	24534	3590	1
0	24546	3593	2
0	24556	3595	1
0	24565	3596	2
0	24576	3598	1
0	24589	3599	1
0	24600	3600	2
0	24611	3601	1
0	24626	3603	1
0	24636	3604	1
0	24690	3612	1
0	24710	3615	4
0	24741	3619	1
0	24771	3623	1
0	24781	3624	2
0	24806	3627	1
0	24816	3628	2
0	24840	3631	1
0	24853	3633	1
0	24859	3634	2
0	24873	3637	1
0	24955	3651	1
0	25057	3665	1
0	25086	3669	1
0	25092	3670	2
0	25108	3673	1
0	25154	3680	1
0	25174	3682	1
0	25210	3687	1
0	25235	3690	1
0	25255	3694	1
0	25279	3697	2
0	25293	3700	1
0	25334	3706	1
0	25350	3707	2
0	25389	3712	1
0	25423	3716	1
0	25434	3717	1
0	25451	3719	1
0	25488	3725	1
0	25499	3728	1
0	25516	3731	1
0	25572	3739	1
0	25583	3742	1
0	25594	3745	1
0	25611	3750	1
0	25650	3756	1
0	25662	3757	1
0	25674	3758	1
0	25684	3759	2
0	25695	3760	1
0	25721	3763	3
0	25736	3764	2
0	25747	3765	1
0	25794	3771	1
0	25808	3772	1
0	25873	3781	1
0	25890	3783	1
0	25909	3785	1
0	25947	3790	1
0	25959	3792	1
0	25971	3795	1
0	25978	3796	1
0	26002	3802	1
0	26042	3808	1
0	26084	3817	1
0	26095	3818	1
0	26118	3822	1
0	26141	3824	1
0	26151	3825	2
0	26211	3833	1
0	26234	3836	1
0	26285	3843	1
0	26322	3849	1
0	26367	3856	1
0	26395	3859	1
0	26406	3860	1
0	26427	3862	1
0	26437	3863	2
0	26455	3865	1
0	26468	3866	1
0	26494	3869	1
0	26543	3880	1
0	26554	3882	1
0	26567	3884	1
0	26573	3885	2
0	26592	3889	1
0	26599	3890	2
0	26605	3891	2
0	26639	3899	1
0	26652	3900	1
0	26678	3903	2
0	26688	3904	2
0	26699	3905	2
0	26707	3906	2
0	26714	3907	3
0	26721	3908	2
0	26731	3909	2
0	26750	3912	1
0	26761	3913	1
0	26767	3914	2
0	26791	3917	2
0	26814	3919	1
0	26825	3920	2
0	26835	3921	2
0	26846	3922	1
0	26861	3924	1
0	26897	3931	1
0	26907	3932	2
0	26984	3947	1
0	26991	3948	1
0	27028	3956	1
0	27062	3963	1
0	27072	3964	1
0	27112	3971	1
0	27143	3976	1
0	27203	3986	1
0	27216	3989	1
0	27228	3990	1
0	27279	3997	1
0	27291	3998	1
0	27320	4001	2
0	27331	4002	1
0	27362	4006	1
0	27378	4008	1
0	27407	4013	1
0	27490	4028	1
0	27522	4031	1
0	27540	4033	1
0	27571	4037	1
0	27627	4045	1
0	27639	4048	1
0	27651	4049	1
0	27757	4067	1
0	27775	4070	1
0	27791	4073	1
0	27803	4075	1
0	27814	4076	1
0	27831	4078	1
0	27873	4084	1
0	27891	4088	1
0	27906	4091	2
0	27929	4096	1
0	27980	4103	1
0	28006	4107	1
0	28019	4108	2
0	28029	4109	2
0	28046	4111	1
0	28071	4116	1
0	28078	4117	1
0	28085	4118	1
0	28130	4130	1
0	28141	4133	1
0	28162	4139	1
0	28191	4142	1
0	28202	4143	1
0	28232	4147	1
0	28243	4148	2
0	28259	4152	1
0	28278	4156	1
0	28284	4157	2
0	28308	4160	2
0	28320	4161	1
0	28337	4163	1
0	28350	4167	1
0	28375	4173	1
0	28386	4174	1
0	28401	4176	1
0	28412	4177	2
0	28426	4179	1
0	28521	4192	1
0	28546	4195	3
0	28578	4199	1
0	28611	4205	1
0	28624	4206	2
0	28637	4207	3
0	28694	4215	1
0	28711	4217	1
0	28751	4223	1
0	28763	4224	2
0	28774	4225	1
0	28791	4228	3
0	28797	4229	3
0	28803	4230	4
0	28821	4233	1
0	28831	4234	1
0	28838	4235	1
0	28853	4240	1
0	28878	4243	1
0	28917	4248	1
0	28935	4251	1
0	28947	4254	2
0	28955	4255	1
0	28964	4256	2
0	29010	4263	1
0	29057	4270	1
0	29068	4271	1
0	29089	4273	1
0	29100	4274	2
0	29144	4281	1
0	29154	4282	2
0	29175	4285	4
0	29190	4286	3
0	29200	4287	3
0	29211	4288	1
0	29236	4291	1
0	29248	4292	1
0	29260	4293	2
0	29306	4299	1
0	29354	4305	1
0	29367	4306	1
0	29390	4309	4
0	29397	4310	3
0	29407	4311	2
0	29437	4315	1
0	29447	4316	2
0	29454	4317	2
0	29463	4318	3
0	29471	4319	4
0	29483	4320	5
0	29494	4321	5
0	29521	4324	1
0	29569	4331	1
0	29588	4338	1
0	29635	4347	1
0	29646	4348	1
0	29665	4350	1
0	29697	4354	1
0	29741	4362	1
0	29748	4363	1
0	29762	4365	1
0	29783	4370	1
0	29849	4383	1
0	29861	4384	1
0	29873	4385	2
0	29933	4393	1
0	29958	4396	1
0	29967	4397	2
0	29989	4404	1
0	30000	4405	1
0	30013	4406	1
0	30041	4409	3
0	30051	4410	3
0	30061	4411	1
0	30095	4417	1
0	30118	4420	1
0	30129	4421	1
0	30149	4425	1
0	30156	4426	1
0	30220	4437	1
0	30231	4438	1
0	30245	4441	4
0	30251	4442	3
0	30257	4443	4
0	30264	4444	4
0	30276	4445	2
0	30377	4460	1
0	30389	4461	1
0	30399	4462	1
0	30444	4472	1
0	30496	4479	1
0	30529	4483	1
0	30569	4490	1
0	30587	4492	1
0	30601	4495	1
0	30608	4496	1
0	30619	4498	1
0	30636	4500	1
0	30647	4502	1
0	30685	4507	1
0	30698	4508	1
0	30725	4511	4
0	30736	4512	4
0	30746	4513	3
0	30768	4517	1
0	30805	4524	1
0	30819	4528	1
0	30825	4529	2
0	30832	4530	1
0	30844	4532	1
0	30856	4533	2
0	30883	4536	4
0	30894	4537	1
0	30920	4541	1
0	30929	4543	1
0	30951	4548	1
0	30963	4550	1
0	30973	4551	1
0	30998	4554	1
0	31031	4560	1
0	31052	4562	1
0	31077	4565	1
0	31096	4567	1
0	31116	4569	1
0	31155	4574	1
0	31210	4581	1
0	31242	4585	1
0	31274	4589	1
0	31286	4590	1
0	31302	4594	1
0	31329	4600	1
0	31350	4604	1
0	31369	4607	1
0	31376	4608	1
0	31394	4612	1
0	31417	4615	1
0	31454	4621	1
0	31467	4622	1
0	31478	4623	1
0	31488	4624	1
0	31497	4626	1
0	31519	4629	3
0	31530	4630	1
0	31575	4638	1
0	31597	4643	1
0	31604	4644	1
0	31642	4653	1
0	31662	4655	1
0	31700	4660	1
0	31721	4662	1
0	31731	4663	2
0	31757	4666	3
0	31773	4668	1
0	31811	4673	1
0	31827	4675	1
0	31834	4676	1
0	31852	4681	1
0	31864	4682	2
0	31919	4689	1
0	31937	4691	1
0	31946	4692	2
0	31960	4695	2
0	31983	4698	1
0	31994	4699	1
0	32052	4710	1
0	32127	4719	1
0	32137	4720	2
0	32195	4728	1
0	32258	4739	1
0	32278	4741	1
0	32289	4742	1
0	32318	4747	1
0	32339	4750	1
0	32371	4757	1
0	32383	4758	1
0	32404	4760	1
0	32437	4764	1
0	32472	4769	1
0	32515	4776	1
0	32561	4783	1
0	32567	4784	2
0	32656	4796	1
0	32685	4799	1
0	32728	4804	1
0	32765	4809	1
0	32813	4815	1
0	32824	4816	2
0	32836	4817	2
0	32846	4818	2
0	32885	4823	1
0	32895	4824	2
0	32926	4832	1
0	32933	4833	2
0	32940	4834	2
0	32947	4835	2
0	32960	4836	2
0	32976	4838	1
0	32987	4839	1
0	32998	4840	1
0	33015	4843	1
0	33027	4844	1
0	33069	4851	1
0	33124	4861	1
0	33162	4868	1
0	33202	4875	1
0	33228	4878	1
0	33240	4879	1
0	33272	4883	1
0	33318	4889	1
0	33477	4911	1
0	33488	4912	1
0	33529	4918	1
0	33547	4921	1
0	33558	4922	2
0	33569	4923	2
0	33617	4929	1
0	33653	4935	1
0	33669	4939	1
0	33729	4947	1
0	33758	4951	1
0	33773	4952	1
0	33804	4955	3
0	33814	4956	3
0	33824	4957	3
0	33849	4960	1
0	33867	4962	1
0	33905	4967	1
0	33917	4969	1
0	33927	4970	1
0	33939	4971	1
0	33966	4977	1
0	33998	4984	1
0	34013	4986	1
0	34079	4996	1
1	2675	400	0
1	2719	407	1
1	2719	407	0
1	2728	408	1
1	2730	408	0
1	2767	416	1
1	2767	416	0
1	2779	417	1
1	2782	417	0
1	2835	424	1
1	2835	424	0
1	2858	427	1
1	2858	427	0
1	2913	434	1
1	2913	434	0
1	2958	441	1
1	2958	441	0
1	2990	447	1
1	2990	447	0
1	3003	449	1
1	3003	449	0
1	3013	450	1
1	3015	450	0
1	3033	452	1
1	3033	452	0
1	3068	457	1
1	3068	457	0
1	3111	463	1
1	3111	463	0
1	3142	468	1
1	3142	468	0
1	3147	469	1
1	3149	469	0
1	3163	473	1
1	3163	473	0
1	3180	479	1
1	3180	479	0
1	3250	489	1
1	3250	489	0
1	3264	492	1
1	3264	492	0
1	3285	494	1
1	3285	494	0
1	3304	496	1
1	3304	496	0
1	3358	503	1
1	3358	503	0
1	3369	504	1
1	3371	504	0
1	3380	505	1
1	3382	505	0
1	3421	510	1
1	3421	510	0
1	3439	513	1
1	3439	513	0
1	3458	516	1
1	3458	516	0
1	3496	522	1
1	3496	522	0
1	3518	525	1
1	3518	525	0
1	3537	528	1
1	3537	528	0
1	3555	532	1
1	3555	532	0
1	3556	532	1
1	3568	533	0
1	3647	545	1
1	3647	545	0
1	3648	545	1
1	3658	546	0
1	3669	548	1
1	3669	548	0
1	3692	552	1
1	3692	552	0
1	3714	555	1
1	3714	555	0
1	3731	557	1
1	3731	557	0
1	3754	560	1
1	3754	560	0
1	3763	561	1
1	3765	561	0
1	3780	563	1
1	3780	563	0
1	3798	565	1
1	3798	565	0
1	3827	569	1
1	3827	569	0
1	3841	572	1
1	3841	572	0
1	3872	579	1
1	3872	579	0
1	3929	587	1
1	3929	587	0
1	3977	593	1
1	3977	593	0
1	4036	603	1
1	4036	603	0
1	4037	603	1
1	4042	604	2
1	4043	604	3
1	4045	604	2
1	4051	605	1
1	4057	606	0
1	4062	607	1
1	4064	607	0
1	4069	608	1
1	4070	608	2
1	4072	608	1
1	4077	609	2
1	4079	609	1
1	4085	610	0
1	4104	615	1
1	4104	615	0
1	4119	619	1
1	4119	619	0
1	4128	621	1
1	4128	621	0
1	4182	631	1
1	4182	631	0
1	4194	632	1
1	4196	632	0
1	4230	637	1
1	4230	637	0
1	4243	639	1
1	4243	639	0
1	4276	645	1
1	4276	645	0
1	4277	645	1
1	4287	646	0
1	4302	648	1
1	4302	648	0
1	4326	653	1
1	4326	653	0
1	4344	656	1
1	4344	656	0
1	4363	658	1
1	4363	658	0
1	4380	660	1
1	4380	660	0
1	4391	662	1
1	4391	662	0
1	4418	668	1
1	4418	668	0
1	4419	668	1
1	4424	669	2
1	4427	669	1
1	4434	670	2
1	4438	670	1
1	4445	671	0
1	4452	672	1
1	4458	672	0
1	4483	675	1
1	4483	675	0
1	4502	677	1
1	4502	677	0
1	4503	677	1
1	4517	678	0
1	4535	680	1
1	4535	680	0
1	4552	682	1
1	4552	682	0
1	4593	687	1
1	4593	687	0
1	4703	702	1
1	4703	702	0
1	4704	702	1
1	4716	703	0
1	4725	704	1
1	4727	704	0
1	4761	709	1
1	4761	709	0
1	4782	712	1
1	4782	712	0
1	4824	717	1
1	4824	717	0
1	4868	723	1
1	4868	723	0
1	4921	732	1
1	4921	732	0
1	4936	736	1
1	4936	736	0
1	4976	741	1
1	4976	741	0
1	5018	750	1
1	5018	750	0
1	5060	755	1
1	5060	755	0
1	5078	757	1
1	5078	757	0
1	5088	758	1
1	5091	758	0
1	5100	759	1
1	5108	760	2
1	5122	761	1
1	5131	762	2
1	5134	762	1
1	5146	763	0
1	5176	767	1
1	5176	767	0
1	5221	773	1
1	5221	773	0
1	5294	787	1
1	5294	787	0
1	5321	790	1
1	5321	790	0
1	5351	794	1
1	5351	794	0
1	5364	797	1
1	5364	797	0
1	5365	797	1
1	5374	798	0
1	5395	802	1
1	5395	802	0
1	5475	817	1
1	5475	817	0
1	5493	819	1
1	5493	819	0
1	5534	824	1
1	5534	824	0
1	5535	824	1
1	5544	825	2
1	5547	825	1
1	5557	826	0
1	5583	832	1
1	5583	832	0
1	5590	833	1
1	5593	833	0
1	5626	837	1
1	5626	837	0
1	5627	837	1
1	5640	838	0
1	5664	841	1
1	5664	841	0
1	5682	843	1
1	5682	843	0
1	5704	846	1
1	5704	846	0
1	5709	847	1
1	5712	847	0
1	5719	848	1
1	5729	848	0
1	5750	851	1
1	5750	851	0
1	5760	852	1
1	5763	852	0
1	5786	855	1
1	5786	855	0
1	5795	856	1
1	5801	856	0
1	5879	867	1
1	5879	867	0
1	5995	884	1
1	5995	884	0
1	5996	884	1
1	6006	885	0
1	6013	886	1
1	6015	886	0
1	6024	888	1
1	6024	888	0
1	6025	888	1
1	6035	889	0
1	6044	890	1
1	6046	890	0
1	6068	893	1
1	6068	893	0
1	6069	893	1
1	6070	893	2
1	6081	894	3
1	6083	894	2
1	6093	895	1
1	6102	896	2
1	6104	896	1
1	6111	897	2
1	6121	899	1
1	6132	900	0
1	6146	902	1
1	6146	902	0
1	6173	905	1
1	6173	905	0
1	6182	906	1
1	6184	906	0
1	6195	908	1
1	6195	908	0
1	6196	908	1
1	6201	909	2
1	6203	909	1
1	6208	910	2
1	6211	910	1
1	6218	911	2
1	6222	911	1
1	6228	912	0
1	6233	913	1
1	6240	915	0
1	6245	916	1
1	6246	916	2
1	6253	916	1
1	6265	917	0
1	6272	918	1
1	6277	918	0
1	6293	920	1
1	6293	920	0
1	6294	920	1
1	6306	921	0
1	6324	923	1
1	6324	923	0
1	6344	925	1
1	6344	925	0
1	6345	925	1
1	6356	926	0
1	6373	928	1
1	6373	928	0
1	6389	930	1
1	6397	931	0
1	6446	938	1
1	6446	938	0
1	6476	943	1
1	6476	943	0
1	6485	944	1
1	6487	944	0
1	6581	965	1
1	6581	965	0
1	6582	965	1
1	6591	966	2
1	6593	966	1
1	6602	967	2
1	6608	967	1
1	6618	968	0
1	6627	969	1
1	6629	969	0
1	6638	970	1
1	6640	970	0
1	6658	973	1
1	6658	973	0
1	6666	974	1
1	6668	974	0
1	6681	977	1
1	6681	977	0
1	6692	980	1
1	6692	980	0
1	6693	980	1
1	6698	981	2
1	6699	981	3
1	6700	981	4
1	6702	981	3
1	6707	982	4
1	6710	982	3
1	6720	983	2
1	6727	984	1
1	6737	985	0
1	6746	987	1
1	6746	987	0
1	6754	988	1
1	6755	988	2
1	6761	989	3
1	6768	990	2
1	6778	991	1
1	6790	992	0
1	6862	1002	1
1	6862	1002	0
1	6871	1003	1
1	6874	1003	0
1	6957	1017	1
1	6957	1017	0
1	6987	1020	1
1	6987	1020	0
1	7052	1028	1
1	7052	1028	0
1	7069	1030	1
1	7069	1030	0
1	7070	1030	1
1	7081	1031	0
1	7106	1034	1
1	7106	1034	0
1	7107	1034	1
1	7108	1034	2
1	7118	1035	1
1	7128	1036	0
1	7171	1042	1
1	7171	1042	0
1	7181	1043	1
1	7182	1043	2
1	7183	1043	3
1	7184	1043	4
1	7186	1043	3
1	7195	1044	2
1	7205	1045	1
1	7212	1046	0
1	7252	1054	1
1	7252	1054	0
1	7296	1061	1
1	7296	1061	0
1	7301	1062	1
1	7308	1064	0
1	7329	1068	1
1	7329	1068	0
1	7389	1077	1
1	7389	1077	0
1	7397	1078	1
1	7399	1078	0
1	7422	1082	1
1	7422	1082	0
1	7480	1093	1
1	7480	1093	0
1	7533	1101	1
1	7533	1101	0
1	7557	1104	1
1	7557	1104	0
1	7602	1115	1
1	7602	1115	0
1	7638	1120	1
1	7638	1120	0
1	7656	1122	1
1	7667	1123	0
1	7668	1123	1
1	7678	1124	0
1	7824	1144	1
1	7824	1144	0
1	7833	1145	1
1	7835	1145	0
1	7850	1147	1
1	7850	1147	0
1	7851	1147	1
1	7856	1148	2
1	7858	1148	1
1	7864	1149	0
1	7879	1152	1
1	7879	1152	0
1	7905	1155	1
1	7905	1155	0
1	7927	1158	1
1	7927	1158	0
1	7936	1159	1
1	7949	1161	0
1	7957	1162	1
1	7959	1162	0
1	7966	1163	1
1	7969	1163	0
1	8010	1170	1
1	8010	1170	0
1	8044	1174	1
1	8044	1174	0
1	8081	1183	1
1	8081	1183	0
1	8106	1188	1
1	8106	1188	0
1	8113	1189	1
1	8117	1189	0
1	8143	1193	1
1	8143	1193	0
1	8144	1193	1
1	8151	1194	0
1	8211	1205	1
1	8211	1205	0
1	8218	1206	1
1	8220	1206	0
1	8225	1207	1
1	8228	1207	0
1	8268	1215	1
1	8268	1215	0
1	8279	1216	1
1	8281	1216	0
1	8306	1219	1
1	8306	1219	0
1	8334	1223	1
1	8334	1223	0
1	8343	1225	1
1	8343	1225	0
1	8361	1229	1
1	8361	1229	0
1	8403	1240	1
1	8403	1240	0
1	8404	1240	1
1	8418	1243	0
1	8453	1250	1
1	8453	1250	0
1	8463	1251	1
1	8465	1251	0
1	8505	1259	1
1	8505	1259	0
1	8535	1264	1
1	8535	1264	0
1	8562	1267	1
1	8562	1267	0
1	8563	1267	1
1	8573	1268	0
1	8584	1270	1
1	8584	1270	0
1	8605	1273	1
1	8605	1273	0
1	8610	1274	1
1	8612	1274	0
1	8636	1278	1
1	8636	1278	0
1	8668	1282	1
1	8668	1282	0
1	8713	1289	1
1	8713	1289	0
1	8725	1291	1
1	8725	1291	0
1	8736	1293	1
1	8736	1293	0
1	8762	1297	1
1	8762	1297	0
1	8782	1299	1
1	8782	1299	0
1	8791	1300	1
1	8793	1300	0
1	8820	1305	1
1	8820	1305	0
1	8828	1306	1
1	8830	1306	0
1	8837	1307	1
1	8844	1308	2
1	8845	1308	3
1	8855	1309	2
1	8865	1310	1
1	8873	1311	0
1	8878	1312	1
1	8886	1312	0
1	8927	1318	1
1	8927	1318	0
1	8956	1325	1
1	8956	1325	0
1	8997	1331	1
1	8997	1331	0
1	9021	1335	1
1	9021	1335	0
1	9034	1339	1
1	9034	1339	0
1	9064	1345	1
1	9064	1345	0
1	9083	1349	1
1	9083	1349	0
1	9134	1356	1
1	9134	1356	0
1	9161	1359	1
1	9161	1359	0
1	9193	1363	1
1	9193	1363	0
1	9262	1375	1
1	9262	1375	0
1	9271	1376	1
1	9274	1376	0
1	9308	1383	1
1	9308	1383	0
1	9344	1392	1
1	9344	1392	0
1	9365	1395	1
1	9365	1395	0
1	9379	1397	1
1	9379	1397	0
1	9389	1399	1
1	9399	1400	0
1	9400	1400	1
1	9409	1401	2
1	9411	1401	1
1	9421	1402	0
1	9439	1404	1
1	9439	1404	0
1	9440	1404	1
1	9452	1405	0
1	9467	1407	1
1	9467	1407	0
1	9472	1408	1
1	9473	1408	2
1	9476	1408	1
1	9483	1409	2
1	9484	1409	3
1	9491	1409	2
1	9501	1410	1
1	9512	1411	0
1	9534	1415	1
1	9534	1415	0
1	9567	1419	1
1	9567	1419	0
1	9640	1429	1
1	9640	1429	0
1	9663	1432	1
1	9663	1432	0
1	9672	1434	1
1	9672	1434	0
1	9690	1436	1
1	9690	1436	0
1	9734	1441	1
1	9734	1441	0
1	9797	1450	1
1	9797	1450	0
1	9824	1455	1
1	9824	1455	0
1	9832	1456	1
1	9834	1456	0
1	9849	1458	1
1	9850	1458	2
1	9859	1459	1
1	9860	1459	2
1	9872	1460	1
1	9881	1461	2
1	9883	1461	1
1	9892	1462	2
1	9894	1462	1
1	9904	1463	0
1	9971	1472	1
1	9971	1472	0
1	9972	1472	1
1	9983	1473	0
1	10001	1475	1
1	10001	1475	0
1	10011	1476	1
1	10014	1476	0
1	10032	1478	1
1	10032	1478	0
1	10059	1481	1
1	10059	1481	0
1	10068	1482	1
1	10071	1482	0
1	10080	1483	1
1	10083	1483	0
1	10101	1485	1
1	10101	1485	0
1	10110	1486	1
1	10112	1486	0
1	10127	1488	1
1	10127	1488	0
1	10136	1490	1
1	10136	1490	0
1	10147	1493	1
1	10147	1493	0
1	10169	1499	1
1	10169	1499	0
1	10192	1503	1
1	10192	1503	0
1	10197	1504	1
1	10209	1506	0
1	10210	1506	1
1	10220	1507	0
1	10229	1508	1
1	10231	1508	0
1	10238	1509	1
1	10240	1509	0
1	10249	1511	1
1	10249	1511	0
1	10263	1513	1
1	10263	1513	0
1	10268	1514	1