version 3
run Experimentos-887-20260514-09:21:41-7860
attr configname Experimentos
attr datetime 20260514-09:21:41
attr datetimef 20260514-092141
attr experiment Experimentos
attr inifile TwoQueues.ini
attr iterationvars "$p=0.7, $q=0.3, $Y=30, $m=2"
attr iterationvarsd p=0.7/q=0.3/Y=30/m=2
attr iterationvarsf p=0.7,q=0.3,Y=30,m=2-
attr measurement "$p=0.7, $q=0.3, $Y=30, $m=2"
attr network TwoQueues
attr processid 7860
attr repetition 7
attr replication #7
attr resultdir results
attr runnumber 887
attr seedset 887
itervar Y 30
itervar m 2
itervar p 0.7
itervar q 0.3
config description "Barrido completo de parámetros Proyecto 12"
config **.source1.p 0.7
config **.source1.q 0.2
config **.source2.p 0.6
config **.source2.q 0.3
config **.serverWithMaintenance.Y 30
config **.serverWithMaintenance.m 2
config network TwoQueues
config cpu-time-limit 5000s
config sim-time-limit 5000s
config warmup-period 400s
config repeat 20
config output-scalar-file results/Experimentos-p=0.7,q=0.3,Y=30,m=2--#7.sca
config output-vector-file results/Experimentos-p=0.7,q=0.3,Y=30,m=2--#7.vec
config **.vector-recording true

vector 0 TwoQueues.serverWithMaintenance residenceTime2:vector ETV
attr recordingmode vector
attr source delay2
attr title "Residence Time Class 2"
vector 1 TwoQueues.queue2 queueLengthStats:vector ETV
attr recordingmode vector
attr source qlen
attr title "Average Queue Length"
vector 2 TwoQueues.queue1 queueLengthStats:vector ETV
attr recordingmode vector
attr source qlen
attr title "Average Queue Length"
vector 3 TwoQueues.server residenceTime1:vector ETV
attr recordingmode vector
attr source delay1
attr title "Residence Time Class 1"
vector 4 TwoQueues.server throughputStats1:vector ETV
attr recordingmode vector
attr source throughput1
attr title "Throughput Class 1"
0	2225	400	1
0	2245	405	1
0	2283	411	1
0	2297	414	1
0	2322	417	1
0	2345	421	1
0	2375	426	1
0	2396	430	1
0	2418	436	1
0	2438	440	1
0	2463	443	1
0	2470	444	2
0	2477	445	2
0	2483	446	2
0	2491	447	1
0	2497	448	2
0	2504	449	1
0	2513	451	1
0	2526	455	1
0	2533	456	1
0	2540	457	1
0	2562	464	1
0	2571	465	2
0	2581	466	1
0	2590	467	1
0	2599	469	1
0	2609	470	1
0	2620	472	1
0	2627	473	1
0	2652	478	1
0	2667	483	1
0	2683	486	1
0	2716	497	1
0	2729	499	1
0	2740	500	1
0	2751	501	1
0	2782	505	1
0	2806	508	1
0	2832	511	1
0	2843	512	1
0	2857	515	1
0	2936	532	1
0	2967	540	1
0	2974	541	1
0	2983	543	1
0	2994	546	1
0	3037	558	1
0	3055	560	1
0	3094	565	1
0	3117	570	1
0	3167	580	1
0	3190	583	1
0	3220	589	1
0	3241	593	1
0	3288	604	1
0	3299	605	1
0	3338	613	1
0	3362	616	1
0	3380	618	1
0	3390	619	1
0	3402	621	1
0	3411	622	2
0	3428	625	3
0	3455	630	1
0	3490	636	1
0	3500	637	1
0	3516	640	1
0	3528	641	1
0	3539	642	1
0	3559	646	1
0	3601	652	1
0	3611	653	2
0	3641	657	1
0	3668	660	1
0	3698	664	1
0	3725	670	1
0	3746	673	1
0	3776	679	1
0	3792	681	1
0	3806	684	1
0	3821	688	1
0	3860	695	1
0	3896	700	1
0	3907	701	1
0	3928	706	1
0	3937	707	2
0	3948	708	1
0	3986	714	1
0	4000	715	2
0	4010	716	2
0	4020	717	3
0	4032	718	1
0	4056	721	3
0	4066	723	1
0	4076	724	2
0	4085	725	2
0	4091	726	2
0	4098	727	1
0	4105	728	1
0	4112	729	1
0	4122	731	1
0	4132	732	2
0	4143	733	1
0	4182	739	1
0	4199	744	1
0	4246	750	1
0	4280	758	1
0	4294	759	1
0	4319	762	1
0	4330	763	1
0	4353	766	1
0	4400	777	1
0	4414	780	1
0	4421	781	1
0	4430	783	1
0	4454	790	1
0	4463	792	1
0	4473	794	1
0	4480	795	2
0	4487	796	2
0	4494	797	2
0	4500	798	2
0	4541	807	1
0	4603	819	1
0	4665	834	1
0	4684	836	1
0	4717	842	1
0	4742	845	1
0	4790	853	1
0	4800	854	2
0	4807	855	3
0	4813	856	3
0	4820	857	3
0	4829	858	2
0	4845	860	1
0	4868	864	1
0	4930	873	1
0	4941	874	1
0	4988	884	1
0	4996	885	1
0	5003	886	2
0	5009	887	2
0	5028	891	1
0	5036	892	2
0	5042	893	2
0	5049	894	3
0	5059	895	2
0	5087	902	1
0	5098	903	1
0	5110	905	1
0	5128	909	1
0	5143	913	1
0	5184	918	1
0	5196	920	1
0	5209	923	1
0	5232	928	1
0	5239	929	1
0	5246	930	1
0	5269	934	1
0	5278	936	1
0	5306	945	1
0	5315	947	1
0	5333	951	1
0	5349	955	1
0	5418	966	1
0	5425	967	1
0	5457	972	1
0	5489	976	1
0	5495	977	2
0	5515	984	1
0	5523	985	2
0	5529	986	2
0	5536	987	3
0	5545	988	2
0	5556	990	1
0	5566	991	1
0	5584	994	1
0	5601	996	1
0	5611	997	2
0	5617	998	2
0	5625	999	1
0	5631	1000	2
0	5651	1003	2
0	5682	1010	1
0	5695	1014	1
0	5709	1018	1
0	5715	1019	2
0	5747	1027	1
0	5753	1028	2
0	5760	1029	1
0	5770	1030	1
0	5779	1031	1
0	5786	1032	1
0	5831	1043	1
0	5840	1044	2
0	5874	1050	1
0	5886	1052	1
0	5893	1053	1
0	5900	1054	1
0	5911	1056	1
0	5974	1071	1
0	5981	1072	1
0	5993	1073	1
0	6017	1076	1
0	6042	1080	1
0	6114	1100	1
0	6131	1102	1
0	6154	1105	1
0	6173	1108	1
0	6186	1112	1
0	6236	1122	1
0	6252	1127	1
0	6273	1130	4
0	6284	1131	4
0	6293	1132	5
0	6300	1133	5
0	6309	1134	2
0	6327	1136	1
0	6359	1142	1
0	6373	1145	1
0	6386	1149	1
0	6393	1150	1
0	6413	1154	1
0	6423	1155	1
0	6464	1163	1
0	6492	1167	1
0	6529	1172	1
0	6543	1174	1
0	6568	1180	1
0	6579	1181	1
0	6610	1186	1
0	6623	1189	1
0	6636	1191	1
0	6646	1192	2
0	6657	1193	2
0	6674	1197	1
0	6690	1200	1
0	6743	1209	1
0	6757	1212	1
0	6770	1216	1
0	6785	1221	1
0	6863	1234	1
0	6908	1242	1
0	6925	1245	1
0	6931	1246	2
0	6941	1247	1
0	6959	1250	1
0	6971	1251	2
0	6981	1252	2
0	7020	1257	1
0	7034	1258	2
0	7045	1259	2
0	7056	1260	3
0	7080	1263	1
0	7098	1265	1
0	7166	1276	1
0	7176	1278	1
0	7185	1279	2
0	7211	1285	1
0	7225	1287	1
0	7232	1288	2
0	7238	1289	3
0	7245	1290	3
0	7251	1291	2
0	7298	1302	1
0	7387	1319	1
0	7398	1321	1
0	7419	1327	1
0	7425	1328	2
0	7435	1329	1
0	7444	1330	1
0	7451	1331	1
0	7477	1336	1
0	7497	1340	1
0	7511	1341	1
0	7522	1342	1
0	7540	1344	1
0	7564	1349	1
0	7570	1350	2
0	7588	1354	1
0	7604	1357	1
0	7628	1360	1
0	7637	1361	2
0	7650	1364	1
0	7671	1367	1
0	7690	1369	1
0	7700	1370	1
0	7728	1379	1
0	7758	1383	1
0	7779	1387	1
0	7790	1390	1
0	7799	1392	1
0	7819	1397	1
0	7829	1398	1
0	7851	1401	1
0	7870	1403	1
0	7887	1405	1
0	7897	1406	1
0	7907	1407	1
0	7916	1408	1
0	7929	1409	1
0	7973	1420	1
0	8000	1423	4
0	8011	1424	1
0	8047	1435	1
0	8056	1436	2
0	8072	1439	1
0	8083	1440	1
0	8118	1446	1
0	8125	1447	1
0	8135	1448	1
0	8147	1449	1
0	8164	1454	1
0	8173	1456	1
0	8187	1458	1
0	8198	1461	1
0	8207	1463	1
0	8217	1464	1
0	8243	1468	1
0	8251	1469	2
0	8260	1470	2
0	8273	1471	3
0	8314	1479	1
0	8354	1489	1
0	8361	1490	1
0	8377	1494	1
0	8395	1497	1
0	8408	1500	1
0	8474	1514	1
0	8486	1516	1
0	8498	1517	1
0	8540	1527	1
0	8565	1530	1
0	8575	1531	2
0	8585	1532	2
0	8596	1533	2
0	8632	1540	1
0	8639	1541	1
0	8650	1544	1
0	8674	1547	1
0	8683	1548	2
0	8696	1551	1
0	8706	1552	1
0	8717	1554	1
0	8765	1564	1
0	8783	1568	1
0	8807	1575	1
0	8832	1579	1
0	8859	1585	1
0	8871	1586	1
0	8890	1591	1
0	8900	1592	2
0	8949	1601	1
0	8956	1602	1
0	8963	1603	1
0	8972	1605	1
0	8990	1609	1
0	8999	1611	1
0	9017	1615	1
0	9048	1623	1
0	9068	1628	1
0	9075	1629	1
0	9089	1632	3
0	9101	1633	2
0	9113	1634	3
0	9123	1635	3
0	9135	1636	3
0	9146	1637	2
0	9154	1638	2
0	9170	1640	1
0	9182	1642	1
0	9202	1646	1
0	9212	1647	1
0	9224	1648	1
0	9254	1652	1
0	9289	1658	1
0	9310	1666	1
0	9328	1670	1
0	9335	1671	1
0	9347	1674	1
0	9353	1675	2
0	9375	1681	1
0	9389	1684	1
0	9401	1685	1
0	9426	1688	1
0	9440	1690	1
0	9475	1695	1
0	9489	1698	1
0	9520	1706	1
0	9565	1717	1
0	9577	1718	1
0	9597	1722	1
0	9611	1725	1
0	9635	1730	1
0	9641	1731	2
0	9686	1741	1
0	9693	1742	1
0	9704	1743	1
0	9712	1744	2
0	9719	1745	1
0	9730	1748	1
0	9750	1753	1
0	9761	1754	1
0	9795	1763	1
0	9815	1768	1
0	9847	1778	1
0	9859	1780	1
0	9882	1785	1
0	9894	1786	1
0	9921	1790	1
0	9938	1792	1
0	10006	1806	1
0	10034	1814	1
0	10050	1817	1
0	10062	1819	1
0	10087	1823	1
0	10103	1827	1
0	10160	1834	1
0	10196	1839	1
0	10221	1842	1
0	10232	1843	2
0	10244	1844	1
0	10270	1847	3
0	10280	1848	4
0	10286	1849	5
0	10292	1850	5
0	10302	1851	5
0	10313	1852	5
0	10384	1866	1
0	10417	1876	1
0	10482	1888	1
0	10491	1889	2
0	10500	1890	1
0	10509	1892	1
0	10523	1896	1
0	10529	1897	2
0	10536	1898	1
0	10565	1904	1
0	10577	1906	1
0	10596	1909	1
0	10613	1911	1
0	10622	1912	2
0	10649	1917	1
0	10657	1918	1
0	10667	1919	2
0	10675	1920	2
0	10700	1925	1
0	10719	1931	1
0	10731	1933	1
0	10747	1937	1
0	10765	1939	1
0	10786	1943	1
0	10811	1949	1
0	10823	1951	1
0	10830	1952	1
0	10837	1953	1
0	10848	1956	1
0	10860	1959	1
0	10866	1960	2
0	10891	1970	1
0	10898	1971	1
0	10912	1973	1
0	10923	1974	1
0	10933	1975	2
0	10942	1976	2
0	10953	1977	3
0	10984	1984	1
0	10996	1987	1
0	11006	1988	2
0	11014	1989	2
0	11032	1993	1
0	11039	1994	1
0	11046	1995	1
0	11055	1997	1
0	11068	2000	1
0	11090	2004	1
0	11100	2005	2
0	11108	2006	2
0	11126	2010	1
0	11149	2016	1
0	11158	2017	2
0	11197	2027	1
0	11213	2030	2
0	11219	2031	2
0	11236	2033	1
0	11258	2038	1
0	11278	2043	1
0	11292	2045	1
0	11301	2047	1
0	11320	2054	1
0	11327	2055	1
0	11337	2056	1
0	11355	2059	1
0	11372	2065	1
0	11396	2069	1
0	11402	2070	2
0	11409	2071	1
0	11437	2077	1
0	11446	2078	2
0	11457	2080	1
0	11488	2088	1
0	11499	2091	1
0	11506	2092	1
0	11545	2103	1
0	11557	2105	1
0	11577	2107	1
0	11629	2114	1
0	11658	2118	1
0	11665	2119	1
0	11694	2126	1
0	11701	2127	1
0	11708	2128	1
0	11725	2131	3
0	11739	2134	1
0	11757	2136	1
0	11781	2139	1
0	11794	2143	1
0	11812	2146	1
0	11828	2150	1
0	11841	2152	1
0	11851	2153	2
0	11868	2155	1
0	11880	2156	1
0	11919	2162	1
0	11931	2163	1
0	11944	2164	1
0	11985	2170	1
0	12008	2175	1
0	12015	2176	1
0	12024	2178	1
0	12058	2184	1
0	12079	2187	1
0	12128	2194	1
0	12140	2196	1
0	12154	2198	1
0	12182	2202	1
0	12195	2206	1
0	12226	2211	1
0	12232	2212	2
0	12244	2214	1
0	12255	2215	2
0	12262	2216	2
0	12277	2219	5
0	12288	2220	5
0	12299	2221	5
0	12310	2222	2
0	12333	2227	1
0	12340	2228	1
0	12367	2233	1
0	12395	2239	1
0	12409	2240	1
0	12439	2245	1
0	12497	2258	1
0	12511	2261	1
0	12521	2262	1
0	12532	2264	1
0	12546	2266	1
0	12570	2273	1
0	12585	2278	1
0	12618	2286	1
0	12628	2287	2
0	12639	2288	3
0	12647	2289	2
0	12662	2292	1
0	12672	2293	2
0	12684	2294	1
0	12696	2296	1
0	12730	2303	1
0	12743	2307	1
0	12750	2308	1
0	12759	2310	1
0	12766	2311	1
0	12784	2314	2
0	12791	2315	2
0	12797	2316	2
0	12806	2318	1
0	12814	2319	1
0	12820	2320	2
0	12830	2321	1
0	12845	2324	1
0	12857	2326	1
0	12876	2330	1
0	12883	2331	2
0	12890	2332	2
0	12896	2333	2
0	12912	2336	1
0	12980	2347	1
0	12986	2348	2
0	13007	2353	1
0	13013	2354	2
0	13023	2355	1
0	13034	2357	1
0	13051	2359	1
0	13082	2366	1
0	13104	2371	1
0	13110	2372	2
0	13117	2373	3
0	13126	2374	2
0	13137	2376	1
0	13146	2378	1
0	13167	2382	1
0	13178	2383	1
0	13198	2386	3
0	13265	2402	1
0	13280	2404	1
0	13290	2405	2
0	13299	2406	2
0	13305	2407	2
0	13337	2413	1
0	13348	2416	1
0	13365	2419	1
0	13371	2420	2
0	13393	2425	1
0	13405	2426	1
0	13421	2430	1
0	13431	2431	1
0	13443	2432	1
0	13455	2433	1
0	13484	2438	1
0	13495	2439	1
0	13502	2440	2
0	13508	2441	2
0	13525	2446	1
0	13566	2455	1
0	13577	2458	1
0	13584	2459	1
0	13600	2463	1
0	13616	2465	1
0	13651	2471	1
0	13665	2472	2
0	13683	2474	1
0	13738	2481	1
0	13770	2485	1
0	13791	2489	1
0	13800	2490	2
0	13810	2491	1
0	13816	2492	2
0	13857	2499	1
0	13870	2501	1
0	13877	2502	2
0	13883	2503	2
0	13899	2505	1
0	13912	2507	1
0	13918	2508	2
0	13927	2510	1
0	13938	2513	1
0	13952	2514	1
0	14003	2521	1
0	14025	2524	1
0	14034	2526	1
0	14083	2540	1
0	14092	2541	2
0	14126	2547	1
0	14161	2552	1
0	14179	2555	1
0	14193	2558	1
0	14203	2559	1
0	14263	2569	1
0	14278	2570	1
0	14337	2580	1
0	14346	2582	1
0	14353	2583	1
0	14387	2592	1
0	14397	2593	1
0	14431	2598	1
0	14441	2599	1
0	14449	2600	1
0	14455	2601	2
0	14477	2607	1
0	14505	2611	1
0	14514	2613	1
0	14539	2618	1
0	14546	2619	1
0	14565	2623	1
0	14571	2624	2
0	14584	2627	1
0	14596	2629	1
0	14607	2632	1
0	14626	2636	1
0	14632	2637	2
0	14639	2638	1
0	14681	2645	1
0	14690	2646	2
0	14735	2654	1
0	14746	2655	1
0	14762	2657	1
0	14769	2658	1
0	14776	2659	1
0	14783	2660	1
0	14797	2664	1
0	14806	2665	2
0	14833	2670	1
0	14851	2675	1
0	14861	2676	1
0	14880	2683	1
0	14887	2684	1
0	14894	2685	1
0	14901	2686	1
0	14940	2693	1
0	14950	2694	2
0	14960	2695	3
0	14966	2696	2
0	14973	2697	1
0	14985	2700	1
0	14991	2701	2
0	15001	2703	1
0	15007	2704	2
0	15078	2723	1
0	15108	2731	1
0	15198	2746	1
0	15211	2748	1
0	15221	2749	2
0	15232	2750	2
0	15245	2751	1
0	15300	2763	1
0	15307	2764	1
0	15355	2773	1
0	15398	2781	1
0	15408	2782	1
0	15415	2783	1
0	15423	2784	1
0	15429	2785	2
0	15489	2797	1
0	15507	2799	1
0	15520	2800	2
0	15531	2801	3
0	15542	2802	3
0	15552	2803	2
0	15561	2804	2
0	15599	2812	1
0	15619	2817	1
0	15629	2819	1
0	15638	2820	2
0	15674	2827	1
0	15690	2830	1
0	15729	2835	1
0	15773	2844	1
0	15789	2847	1
0	15819	2852	1
0	15830	2853	2
0	15840	2854	2
0	15854	2856	1
0	15864	2857	1
0	15875	2860	1
0	15882	2861	1
0	15902	2866	1
0	15909	2867	1
0	15921	2869	1
0	15932	2870	2
0	15941	2871	2
0	15949	2872	3
0	15972	2875	1
0	16003	2881	1
0	16039	2888	1
0	16056	2891	1
0	16081	2894	1
0	16118	2898	1
0	16160	2904	1
0	16167	2905	2
0	16173	2906	2
0	16221	2913	1
0	16272	2924	1
0	16281	2925	2
0	16336	2941	1
0	16348	2942	2
0	16359	2943	2
0	16365	2944	2
0	16371	2945	3
0	16382	2948	1
0	16393	2949	1
0	16411	2952	1
0	16417	2953	2
0	16443	2961	1
0	16464	2964	1
0	16500	2974	1
0	16508	2975	2
0	16514	2976	2
0	16521	2977	3
0	16527	2978	2
0	16534	2979	1
0	16552	2983	1
0	16594	2989	1
0	16621	2992	2
0	16642	2994	1
0	16696	3002	1
0	16735	3009	1
0	16749	3011	1
0	16762	3014	1
0	16789	3020	1
0	16799	3021	1
0	16860	3037	1
0	16889	3040	1
0	16908	3042	1
0	16918	3043	2
0	16948	3047	1
0	16969	3050	1
0	16989	3055	1
0	17001	3056	1
0	17011	3057	1
0	17021	3058	1
0	17041	3060	1
0	17052	3061	2
0	17080	3065	1
0	17089	3066	2
0	17098	3068	1
0	17114	3071	1
0	17121	3072	1
0	17137	3074	1
0	17172	3079	1
0	17189	3081	1
0	17203	3082	1
0	17221	3084	1
0	17246	3087	2
0	17258	3088	1
0	17269	3089	1
0	17325	3101	1
0	17382	3110	1
0	17413	3115	1
0	17420	3116	1
0	17431	3118	1
0	17441	3119	1
0	17448	3120	1
0	17477	3126	1
0	17514	3133	1
0	17533	3136	1
0	17597	3146	1
0	17614	3148	1
0	17653	3160	1
0	17701	3174	1
0	17713	3177	1
0	17722	3178	2
0	17734	3179	1
0	17754	3183	1
0	17778	3186	1
0	17787	3187	2
0	17794	3188	1
0	17807	3192	1
0	17818	3193	1
0	17846	3197	1
0	17873	3200	1
0	17886	3201	2
0	17897	3202	2
0	17919	3205	5
0	17928	3206	6
0	17934	3207	4
0	17941	3208	4
0	17947	3209	2
0	17972	3212	1
0	17981	3213	2
0	17987	3214	3
0	18005	3218	1
0	18015	3220	1
0	18021	3221	2
0	18031	3223	1
0	18037	3224	2
0	18077	3236	1
0	18088	3237	2
0	18097	3238	2
0	18107	3239	3
0	18121	3240	3
0	18147	3243	1
0	18165	3245	1
0	18205	3253	1
0	18214	3255	1
0	18241	3263	1
0	18248	3264	2
0	18254	3265	2
0	18279	3270	1
0	18290	3273	1
0	18305	3278	1
0	18325	3283	1
0	18348	3286	1
0	18371	3289	3
0	18381	3290	4
0	18390	3291	2
0	18401	3293	1
0	18427	3301	1
0	18437	3302	1
0	18464	3309	1
0	18473	3310	2
0	18514	3317	1
0	18526	3318	2
0	18537	3319	1
0	18593	3327	1
0	18617	3331	1
0	18624	3332	1
0	18631	3333	1
0	18638	3334	1
0	18645	3335	1
0	18652	3336	1
0	18670	3339	1
0	18680	3340	1
0	18690	3341	1
0	18703	3344	1
0	18754	3357	1
0	18768	3359	1
0	18784	3361	1
0	18796	3363	1
0	18804	3364	1
0	18813	3365	2
0	18847	3371	1
0	18854	3372	1
0	18876	3376	1
0	18919	3385	1
0	18928	3386	2
0	18950	3392	1
0	18980	3401	1
0	18992	3402	1
0	19024	3409	1
0	19035	3412	1
0	19052	3418	1
0	19087	3423	1
0	19096	3425	1
0	19105	3427	1
0	19114	3429	1
0	19160	3442	1
0	19180	3446	1
0	19192	3447	1
0	19202	3448	1
0	19236	3455	1
0	19256	3458	1
0	19266	3459	2
0	19286	3465	1
0	19293	3466	1
0	19302	3468	1
0	19317	3472	1
0	19340	3477	1
0	19367	3483	1
0	19386	3490	1
0	19397	3492	1
0	19407	3493	1
0	19414	3494	1
0	19454	3501	1
0	19461	3502	1
0	19468	3503	1
0	19508	3509	1
0	19535	3512	1
0	19559	3515	1
0	19585	3524	1
0	19643	3533	1
0	19650	3534	1
0	19682	3540	1
0	19704	3547	1
0	19735	3553	1
0	19745	3554	1
0	19776	3563	1
0	19788	3564	2
0	19814	3567	1
0	19825	3568	2
0	19843	3570	1
0	19849	3571	2
0	19858	3572	1
0	19865	3573	2
0	19871	3574	3
0	19880	3575	3
0	19889	3576	1
0	19907	3579	1
0	19924	3581	1
0	19970	3593	1
0	19980	3594	1
0	19987	3595	1
0	20011	3602	1
0	20038	3607	1
0	20048	3608	2
0	20056	3609	2
0	20089	3614	1
0	20109	3616	1
0	20138	3620	1
0	20145	3621	1
0	20155	3623	1
0	20161	3624	2
0	20171	3626	1
0	20182	3627	2
0	20257	3642	1
0	20277	3647	1
0	20289	3649	1
0	20300	3650	1
0	20312	3651	1
0	20322	3652	1
0	20360	3658	1
0	20366	3659	2
0	20377	3662	1
0	20411	3668	1
0	20430	3671	1
0	20468	3678	1
0	20494	3681	1
0	20519	3684	1
0	20570	3695	1
0	20582	3696	1
0	20601	3699	1
0	20608	3700	1
0	20630	3706	1
0	20647	3709	3
0	20656	3711	1
0	20674	3713	1
0	20726	3720	1
0	20736	3721	1
0	20750	3723	1
0	20773	3731	1
0	20841	3740	1
0	20853	3742	1
0	20870	3744	1
0	20896	3747	1
0	20905	3748	2
0	20928	3752	1
0	20955	3758	1
0	20973	3762	1
0	21009	3769	1
0	21074	3781	1
0	21086	3782	1
0	21098	3783	1
0	21135	3788	1
0	21148	3792	1
0	21177	3799	1
0	21189	3801	1
0	21217	3804	1
0	21267	3813	1
0	21286	3815	1
0	21296	3816	1
0	21316	3820	1
0	21328	3822	1
0	21338	3823	1
0	21362	3827	1
0	21413	3835	1
0	21424	3836	1
0	21459	3842	1
0	21532	3861	1
0	21548	3864	1
0	21558	3866	1
0	21566	3867	2
0	21572	3868	2
0	21578	3869	3
0	21594	3872	1
0	21629	3878	1
0	21647	3881	1
0	21676	3887	1
0	21690	3888	1
0	21726	3893	1
0	21759	3899	1
0	21765	3900	2
0	21802	3906	1
0	21815	3910	1
0	21825	3912	1
0	21832	3913	2
0	21838	3914	2
0	21869	3921	1
0	21901	3928	1
0	21920	3930	1
0	21950	3934	1
0	21960	3935	1
0	21990	3940	1
0	21999	3942	1
0	22013	3945	2
0	22019	3946	2
0	22025	3947	3
0	22036	3950	1
0	22060	3956	1
0	22118	3968	1
0	22124	3969	2
0	22131	3970	1
0	22155	3977	1
0	22162	3978	1
0	22183	3983	1
0	22192	3984	2
0	22205	3987	1
0	22214	3989	1
0	22221	3990	1
0	22238	3993	1
0	22244	3994	2
0	22255	3997	1
0	22279	4004	1
0	22297	4008	1
0	22357	4019	1
0	22367	4020	2
0	22375	4021	2
0	22385	4022	2
0	22393	4023	3
0	22400	4024	3
0	22406	4025	2
0	22417	4028	1
0	22427	4029	1
0	22436	4030	1
0	22469	4035	1
0	22514	4042	1
0	22527	4043	2
0	22538	4044	2
0	22547	4045	2
0	22576	4052	1
0	22583	4053	1
0	22594	4056	1
0	22640	4068	1
0	22652	4069	1
0	22671	4072	1
0	22678	4073	1
0	22754	4096	1
0	22787	4101	1
0	22796	4102	2
0	22806	4103	1
0	22842	4109	1
0	22853	4110	1
0	22860	4111	2
0	22867	4112	2
0	22876	4113	2
0	22885	4114	1
0	22894	4116	1
0	22920	4124	1
0	22939	4126	1
0	22950	4127	2
0	22959	4128	3
0	22965	4129	3
0	22976	4132	1
0	22989	4135	1
0	23006	4138	3
0	23018	4140	1
0	23028	4142	1
0	23037	4143	2
0	23051	4145	1
0	23060	4146	2
0	23067	4147	1
0	23080	4150	1
0	23090	4151	1
0	23100	4152	1
0	23114	4155	1
0	23123	4156	2
0	23136	4157	1
0	23147	4158	2
0	23195	4167	1
0	23211	4169	1
0	23221	4171	1
0	23227	4172	2
0	23250	4175	1
0	23295	4181	1
0	23302	4182	1
0	23309	4183	1
0	23326	4186	1
0	23334	4187	2
0	23346	4188	2
0	23357	4189	3
0	23367	4190	2
0	23410	4197	1
0	23421	4198	1
0	23431	4199	1
0	23443	4202	2
0	23526	4218	1
0	23532	4219	2
0	23539	4220	1
0	23546	4221	1
0	23559	4224	1
0	23598	4233	1
0	23610	4234	1
0	23636	4237	1
0	23647	4238	1
0	23671	4242	1
0	23692	4246	1
0	23698	4247	2
0	23709	4248	1
0	23745	4253	1
0	23806	4266	1
0	23817	4269	1
0	23827	4270	1
0	23892	4283	1
0	23921	4286	1
0	23953	4292	1
0	23964	4295	1
0	23985	4298	1
0	24009	4301	1
0	24036	4305	1
0	24063	4312	1
0	24076	4316	1
0	24087	4319	1
0	24105	4322	1
0	24126	4325	1
0	24175	4331	1
0	24191	4333	1
0	24198	4334	1
0	24207	4336	1
0	24218	4339	1
0	24227	4341	1
0	24242	4345	1
0	24255	4346	1
0	24273	4349	1
0	24290	4352	1
0	24300	4353	2
0	24309	4354	2
0	24321	4355	2
0	24331	4356	2
0	24340	4357	3
0	24346	4358	2
0	24375	4367	1
0	24383	4368	2
0	24394	4369	2
0	24405	4370	3
0	24416	4371	2
0	24425	4372	2
0	24431	4373	2
0	24477	4380	1
0	24488	4381	1
0	24495	4382	2
0	24501	4383	2
0	24554	4397	1
0	24561	4398	1
0	24568	4399	1
0	24580	4402	1
0	24589	4404	1
0	24596	4405	1
0	24628	4411	1
0	24638	4412	1
0	24651	4413	1
0	24660	4414	2
0	24666	4415	2
0	24673	4416	1
0	24701	4420	1
0	24712	4421	2
0	24722	4422	2
0	24738	4426	1
0	24747	4428	1
0	24802	4442	1
0	24879	4459	1
0	24917	4464	1
0	24928	4465	1
0	24939	4466	1
0	24948	4467	2
0	24961	4470	1
0	24970	4472	1
0	24979	4474	1
0	24986	4475	1
0	24997	4478	1
0	25034	4484	1
0	25047	4487	1
0	25072	4493	1
0	25102	4498	1
0	25121	4504	1
0	25165	4511	1
0	25174	4512	2
0	25183	4513	1
0	25196	4516	1
0	25275	4530	1
0	25287	4531	1
0	25298	4532	1
0	25334	4540	1
0	25357	4545	1
0	25364	4546	1
0	25371	4547	1
0	25379	4548	1
0	25389	4549	2
0	25414	4552	1
0	25425	4553	1
0	25453	4557	1
0	25463	4558	1
0	25482	4561	1
0	25524	4571	1
0	25531	4572	1
0	25547	4575	1
0	25560	4578	1
0	25570	4579	1
0	25614	4585	1
0	25626	4587	1
0	25649	4593	1
0	25655	4594	2
0	25669	4598	1
0	25675	4599	2
0	25682	4600	1
0	25694	4603	1
0	25702	4604	1
0	25709	4605	2
0	25718	4606	2
0	25747	4611	1
0	25774	4618	1
0	25794	4622	1
0	25808	4624	1
0	25818	4625	1
0	25832	4627	1
0	25840	4628	1
0	25849	4629	2
0	25858	4630	1
0	25874	4633	1
0	25896	4639	1
0	25907	4642	1
0	25914	4643	1
0	25937	4646	1
0	25952	4649	1
0	25958	4650	2
0	25968	4651	1
0	26011	4660	1
0	26023	4661	1
0	26050	4666	1
0	26059	4668	1
0	26095	4676	1
0	26142	4687	1
0	26153	4689	1
0	26178	4694	1
0	26222	4702	1
0	26257	4710	1
0	26325	4722	1
0	26335	4723	1
0	26348	4727	1
0	26365	4732	1
0	26386	4736	1
0	26404	4742	1
0	26410	4743	2
0	26419	4745	1
0	26430	4747	1
0	26446	4751	1
0	26462	4753	1
0	26472	4754	1
0	26479	4755	1
0	26534	4772	1
0	26541	4773	2
0	26547	4774	2
0	26558	4777	1
0	26572	4779	1
0	26581	4781	1
0	26636	4790	1
0	26703	4799	1
0	26713	4800	2
0	26742	4806	1
0	26752	4807	2
0	26760	4808	2
0	26767	4809	1
0	26783	4812	1
0	26799	4817	1
0	26805	4818	2
0	26839	4827	1
0	26850	4828	1
0	26861	4829	1
0	26875	4831	1
0	26894	4833	1
0	26924	4838	1
0	26933	4839	2
0	26945	4841	1
0	26972	4846	1
0	26985	4850	1
0	27016	4858	1
0	27070	4875	1
0	27095	4881	1
0	27116	4885	1
0	27126	4886	2
0	27156	4893	1
0	27164	4894	1
0	27170	4895	2
0	27196	4900	1
0	27204	4901	2
0	27210	4902	2
0	27216	4903	3
0	27226	4905	1
0	27232	4906	2
0	27245	4908	1
0	27263	4910	1
0	27272	4911	2
0	27283	4914	1
0	27297	4917	1
0	27308	4918	1
0	27351	4924	1
0	27363	4926	1
0	27372	4928	1
0	27385	4931	1
0	27404	4934	1
0	27432	4938	1
0	27471	4944	1
0	27503	4951	1
0	27519	4953	1
0	27532	4955	1
0	27541	4956	2
0	27547	4957	2
0	27554	4958	3
0	27560	4959	4
0	27569	4960	3
0	27589	4962	1
0	27606	4964	1
0	27630	4972	1
0	27645	4977	1
0	27690	4986	1
0	27700	4987	1
0	27734	4994	1
1	2241	404	1
1	2241	404	0
1	2277	410	1
1	2277	410	0
1	2290	413	1
1	2290	413	0
1	2314	416	1
1	2314	416	0
1	2339	420	1
1	2339	420	0
1	2367	425	1
1	2367	425	0
1	2390	429	1
1	2390	429	0
1	2414	435	1
1	2414	435	0
1	2431	439	1
1	2431	439	0
1	2456	442	1
1	2456	442	0
1	2457	442	1
1	2464	443	2
1	2466	443	1
1	2471	444	2
1	2473	444	1
1	2479	445	0
1	2484	446	1
1	2485	446	2
1	2487	446	1
1	2493	447	0
1	2498	448	1
1	2500	448	0
1	2509	450	1
1	2509	450	0
1	2522	454	1
1	2522	454	0
1	2527	455	1
1	2529	455	0
1	2534	456	1
1	2536	456	0
1	2555	463	1
1	2555	463	0
1	2556	463	1
1	2565	464	0
1	2572	465	1
1	2575	465	0
1	2582	466	1
1	2586	466	0
1	2595	468	1
1	2595	468	0
1	2600	469	1
1	2603	469	0
1	2616	471	1
1	2616	471	0
1	2621	472	1
1	2623	472	0
1	2648	477	1
1	2648	477	0
1	2663	482	1
1	2663	482	0
1	2679	485	1
1	2679	485	0
1	2712	496	1
1	2712	496	0
1	2721	498	1
1	2721	498	0
1	2731	499	1
1	2733	499	0
1	2742	500	1
1	2744	500	0
1	2772	504	1
1	2772	504	0
1	2799	507	1
1	2799	507	0
1	2825	510	1
1	2825	510	0
1	2834	511	1
1	2836	511	0
1	2853	514	1
1	2853	514	0
1	2932	531	1
1	2932	531	0
1	2963	539	1
1	2963	539	0
1	2968	540	1
1	2970	540	0
1	2979	542	1
1	2979	542	0
1	2990	545	1
1	2990	545	0
1	3029	557	1
1	3029	557	0
1	3048	559	1
1	3048	559	0
1	3087	564	1
1	3087	564	0
1	3113	569	1
1	3113	569	0
1	3163	579	1
1	3163	579	0
1	3183	582	1
1	3183	582	0
1	3216	588	1
1	3216	588	0
1	3234	592	1
1	3234	592	0
1	3281	603	1
1	3281	603	0
1	3290	604	1
1	3292	604	0
1	3332	612	1
1	3332	612	0
1	3353	615	1
1	3353	615	0
1	3372	617	1
1	3372	617	0
1	3382	618	1
1	3384	618	0
1	3395	620	1
1	3395	620	0
1	3396	620	1
1	3405	621	0
1	3412	622	1
1	3424	624	0
1	3447	629	1
1	3447	629	0
1	3484	635	1
1	3484	635	0
1	3491	636	1
1	3494	636	0
1	3509	639	1
1	3509	639	0
1	3518	640	1
1	3521	640	0
1	3530	641	1
1	3532	641	0
1	3551	645	1
1	3551	645	0
1	3593	651	1
1	3593	651	0
1	3594	651	1
1	3604	652	0
1	3633	656	1
1	3633	656	0
1	3659	659	1
1	3659	659	0
1	3691	663	1
1	3691	663	0
1	3719	669	1
1	3719	669	0
1	3740	672	1
1	3740	672	0
1	3772	678	1
1	3772	678	0
1	3785	680	1
1	3785	680	0
1	3802	683	1
1	3802	683	0
1	3815	687	1
1	3815	687	0
1	3854	694	1
1	3854	694	0
1	3889	699	1
1	3889	699	0
1	3898	700	1
1	3900	700	0
1	3921	705	1
1	3921	705	0
1	3922	705	1
1	3931	706	0
1	3938	707	1
1	3942	707	0
1	3976	713	1
1	3976	713	0
1	3977	713	1
1	3988	714	2
1	3989	714	3
1	3993	714	2
1	4003	715	1
1	4013	716	0
1	4022	717	1
1	4025	717	0
1	4034	718	1
1	4050	720	0
1	4061	722	1
1	4061	722	0
1	4062	722	1
1	4067	723	2
1	4070	723	1
1	4077	724	2
1	4081	724	1
1	4087	725	0
1	4092	726	1
1	4094	726	0
1	4099	727	1
1	4101	727	0
1	4106	728	1
1	4108	728	0
1	4117	730	1
1	4117	730	0
1	4118	730	1
1	4126	731	0
1	4133	732	1
1	4137	732	0
1	4176	738	1
1	4176	738	0
1	4193	743	1
1	4193	743	0
1	4239	749	1
1	4239	749	0
1	4276	757	1
1	4276	757	0
1	4281	758	1
1	4288	758	0
1	4312	761	1
1	4312	761	0
1	4321	762	1
1	4323	762	0
1	4346	765	1
1	4346	765	0
1	4392	776	1
1	4392	776	0
1	4410	779	1
1	4410	779	0
1	4415	780	1
1	4417	780	0
1	4426	782	1
1	4426	782	0
1	4450	789	1
1	4450	789	0
1	4459	791	1
1	4459	791	0
1	4468	793	1
1	4468	793	0
1	4469	793	1
1	4474	794	2
1	4476	794	1
1	4481	795	2
1	4483	795	1
1	4488	796	2
1	4490	796	1
1	4496	797	0
1	4533	806	1
1	4533	806	0
1	4597	818	1
1	4597	818	0
1	4657	833	1
1	4657	833	0
1	4676	835	1
1	4676	835	0
1	4710	841	1
1	4710	841	0
1	4734	844	1
1	4734	844	0
1	4780	852	1
1	4780	852	0
1	4781	852	1
1	4782	852	2
1	4792	853	3
1	4794	853	2
1	4801	854	3
1	4803	854	2
1	4809	855	1
1	4814	856	2
1	4816	856	1
1	4823	857	0
1	4839	859	1
1	4839	859	0
1	4859	863	1
1	4859	863	0
1	4920	872	1
1	4920	872	0
1	4932	873	1
1	4934	873	0
1	4982	883	1
1	4982	883	0
1	4989	884	1
1	4990	884	2
1	4992	884	1
1	4997	885	2
1	4999	885	1
1	5005	886	0
1	5021	890	1
1	5021	890	0
1	5022	890	1
1	5029	891	2
1	5030	891	3
1	5032	891	2
1	5038	892	1
1	5043	893	2
1	5045	893	1
1	5053	894	0
1	5080	901	1
1	5080	901	0
1	5089	902	1
1	5091	902	0
1	5106	904	1
1	5106	904	0
1	5122	908	1
1	5122	908	0
1	5137	912	1
1	5137	912	0
1	5177	917	1
1	5177	917	0
1	5192	919	1
1	5192	919	0
1	5203	922	1
1	5203	922	0
1	5228	927	1
1	5228	927	0
1	5233	928	1
1	5235	928	0
1	5240	929	1
1	5242	929	0
1	5265	933	1
1	5265	933	0
1	5274	935	1
1	5274	935	0
1	5302	944	1
1	5302	944	0
1	5311	946	1
1	5311	946	0
1	5329	950	1
1	5329	950	0
1	5342	954	1
1	5342	954	0
1	5414	965	1
1	5414	965	0
1	5419	966	1
1	5421	966	0
1	5450	971	1
1	5450	971	0
1	5482	975	1
1	5482	975	0
1	5483	975	1
1	5491	976	0
1	5510	983	1
1	5510	983	0
1	5511	983	1
1	5516	984	2
1	5517	984	3
1	5519	984	2
1	5525	985	1
1	5530	986	2
1	5532	986	1
1	5539	987	0
1	5552	989	1
1	5552	989	0
1	5557	990	1
1	5560	990	0
1	5580	993	1
1	5580	993	0
1	5593	995	1
1	5593	995	0
1	5594	995	1
1	5603	996	2
1	5605	996	1
1	5613	997	0
1	5618	998	1
1	5619	998	2
1	5621	998	1
1	5627	999	0
1	5638	1001	1
1	5644	1002	0
1	5678	1009	1
1	5678	1009	0
1	5691	1013	1
1	5691	1013	0
1	5704	1017	1
1	5704	1017	0
1	5705	1017	1
1	5711	1018	0
1	5742	1026	1
1	5742	1026	0
1	5743	1026	1
1	5749	1027	0
1	5754	1028	1
1	5756	1028	0
1	5761	1029	1
1	5764	1029	0
1	5771	1030	1
1	5775	1030	0
1	5780	1031	1
1	5782	1031	0
1	5822	1042	1
1	5822	1042	0
1	5823	1042	1
1	5834	1043	0
1	5867	1049	1
1	5867	1049	0
1	5882	1051	1
1	5882	1051	0
1	5887	1052	1
1	5889	1052	0
1	5894	1053	1
1	5896	1053	0
1	5905	1055	1
1	5905	1055	0
1	5970	1070	1
1	5970	1070	0
1	5975	1071	1
1	5977	1071	0
1	5982	1072	1
1	5987	1072	0
1	6010	1075	1
1	6010	1075	0
1	6036	1079	1
1	6036	1079	0
1	6108	1099	1
1	6108	1099	0
1	6125	1101	1
1	6125	1101	0
1	6146	1104	1
1	6146	1104	0
1	6169	1107	1
1	6169	1107	0
1	6182	1111	1
1	6182	1111	0
1	6232	1121	1
1	6232	1121	0
1	6247	1126	1
1	6247	1126	0
1	6248	1126	1
1	6253	1127	2
1	6254	1127	3
1	6258	1128	4
1	6266	1129	3
1	6277	1130	2
1	6287	1131	1
1	6294	1132	2
1	6296	1132	1
1	6303	1133	0
1	6320	1135	1
1	6320	1135	0
1	6353	1141	1
1	6353	1141	0
1	6369	1144	1
1	6369	1144	0
1	6382	1148	1
1	6382	1148	0
1	6387	1149	1
1	6389	1149	0
1	6406	1153	1
1	6406	1153	0
1	6415	1154	1
1	6417	1154	0
1	6460	1162	1
1	6460	1162	0
1	6483	1166	1
1	6483	1166	0
1	6522	1171	1
1	6522	1171	0
1	6537	1173	1
1	6537	1173	0
1	6562	1179	1
1	6562	1179	0
1	6569	1180	1
1	6573	1180	0
1	6606	1185	1
1	6606	1185	0
1	6617	1188	1
1	6617	1188	0
1	6631	1190	1
1	6631	1190	0
1	6632	1190	1
1	6637	1191	2
1	6640	1191	1
1	6651	1192	0
1	6668	1196	1
1	6668	1196	0
1	6684	1199	1
1	6684	1199	0
1	6736	1208	1
1	6736	1208	0
1	6753	1211	1
1	6753	1211	0
1	6766	1215	1
1	6766	1215	0
1	6781	1220	1
1	6781	1220	0
1	6857	1233	1
1	6857	1233	0
1	6902	1241	1
1	6902	1241	0
1	6920	1244	1
1	6920	1244	0
1	6921	1244	1
1	6927	1245	0
1	6932	1246	1
1	6935	1246	0
1	6950	1249	1
1	6950	1249	0
1	6951	1249	1
1	6961	1250	2
1	6964	1250	1
1	6974	1251	0
1	7011	1256	1
1	7011	1256	0
1	7012	1256	1
1	7022	1257	2
1	7023	1257	3
1	7027	1257	2
1	7038	1258	1
1	7049	1259	0
1	7073	1262	1
1	7073	1262	0
1	7090	1264	1
1	7090	1264	0
1	7162	1275	1
1	7162	1275	0
1	7171	1277	1
1	7171	1277	0
1	7172	1277	1
1	7179	1278	0
1	7205	1284	1
1	7205	1284	0
1	7219	1286	1
1	7219	1286	0
1	7220	1286	1
1	7221	1286	2
1	7226	1287	3
1	7228	1287	2
1	7234	1288	1
1	7239	1289	2
1	7241	1289	1
1	7247	1290	0
1	7292	1301	1
1	7292	1301	0
1	7383	1318	1
1	7383	1318	0
1	7392	1320	1
1	7392	1320	0
1	7414	1326	1
1	7414	1326	0
1	7415	1326	1
1	7421	1327	0
1	7426	1328	1
1	7429	1328	0
1	7436	1329	1
1	7440	1329	0
1	7445	1330	1
1	7447	1330	0
1	7471	1335	1
1	7471	1335	0
1	7491	1339	1
1	7491	1339	0
1	7499	1340	1
1	7504	1340	0
1	7513	1341	1
1	7515	1341	0
1	7532	1343	1
1	7532	1343	0
1	7559	1348	1
1	7559	1348	0
1	7560	1348	1
1	7566	1349	0
1	7584	1353	1
1	7584	1353	0
1	7598	1356	1
1	7598	1356	0
1	7620	1359	1
1	7620	1359	0
1	7621	1359	1
1	7631	1360	0
1	7644	1363	1
1	7644	1363	0
1	7664	1366	1
1	7664	1366	0
1	7683	1368	1
1	7683	1368	0
1	7692	1369	1
1	7694	1369	0
1	7724	1378	1
1	7724	1378	0
1	7751	1382	1
1	7751	1382	0
1	7773	1386	1
1	7773	1386	0
1	7786	1389	1
1	7786	1389	0
1	7795	1391	1
1	7795	1391	0
1	7815	1396	1
1	7815	1396	0
1	7820	1397	1
1	7823	1397	0
1	7843	1400	1
1	7843	1400	0
1	7862	1402	1
1	7862	1402	0
1	7880	1404	1
1	7880	1404	0
1	7889	1405	1
1	7891	1405	0
1	7898	1406	1
1	7901	1406	0
1	7908	1407	1
1	7912	1407	0
1	7917	1408	1
1	7923	1408	0
1	7966	1419	1
1	7966	1419	0
1	7967	1419	1
1	7992	1422	0
1	8002	1423	1
1	8004	1423	0
1	8042	1434	1
1	8042	1434	0
1	8043	1434	1
1	8050	1435	0