version 3
run Experimentos-723-20260514-09:21:32-7042
attr configname Experimentos
attr datetime 20260514-09:21:32
attr datetimef 20260514-092132
attr experiment Experimentos
attr inifile TwoQueues.ini
attr iterationvars "$p=0.7, $q=0.3, $Y=10, $m=2"
attr iterationvarsd p=0.7/q=0.3/Y=10/m=2
attr iterationvarsf p=0.7,q=0.3,Y=10,m=2-
attr measurement "$p=0.7, $q=0.3, $Y=10, $m=2"
attr network TwoQueues
attr processid 7042
attr repetition 3
attr replication #3
attr resultdir results
attr runnumber 723
attr seedset 723
itervar Y 10
itervar m 2
itervar p 0.7
itervar q 0.3
config description "Barrido completo de parámetros Proyecto 12"
config **.source1.p 0.7
config **.source1.q 0.2
config **.source2.p 0.6
config **.source2.q 0.3
config **.serverWithMaintenance.Y 10
config **.serverWithMaintenance.m 2
config network TwoQueues
config cpu-time-limit 5000s
config sim-time-limit 5000s
config warmup-period 400s
config repeat 20
config output-scalar-file results/Experimentos-p=0.7,q=0.3,Y=10,m=2--#3.sca
config output-vector-file results/Experimentos-p=0.7,q=0.3,Y=10,m=2--#3.vec
config **.vector-recording true

vector 0 TwoQueues.serverWithMaintenance residenceTime2:vector ETV
attr recordingmode vector
attr source delay2
attr title "Residence Time Class 2"
vector 1 TwoQueues.queue2 queueLengthStats:vector ETV
attr recordingmode vector
attr source qlen
attr title "Average Queue Length"
vector 2 TwoQueues.queue1 queueLengthStats:vector ETV
attr recordingmode vector
attr source qlen
attr title "Average Queue Length"
vector 3 TwoQueues.server residenceTime1:vector ETV
attr recordingmode vector
attr source delay1
attr title "Residence Time Class 1"
vector 4 TwoQueues.server throughputStats1:vector ETV
attr recordingmode vector
attr source throughput1
attr title "Throughput Class 1"
0	2349	412	1
0	2365	415	1
0	2388	419	1
0	2399	422	1
0	2409	424	1
0	2416	425	2
0	2422	426	2
0	2442	430	1
0	2484	442	1
0	2550	453	1
0	2582	459	1
0	2593	460	2
0	2619	465	1
0	2635	467	1
0	2684	475	1
0	2693	476	2
0	2744	485	1
0	2779	490	1
0	2791	491	1
0	2908	517	1
0	2925	519	1
0	3037	538	1
0	3069	543	1
0	3080	544	2
0	3090	545	2
0	3099	546	1
0	3110	549	1
0	3126	552	1
0	3136	553	1
0	3163	560	1
0	3203	570	1
0	3217	572	1
0	3291	588	1
0	3305	590	1
0	3337	595	1
0	3347	596	2
0	3401	605	1
0	3439	618	1
0	3466	624	1
0	3480	628	1
0	3519	635	1
0	3583	647	1
0	3593	648	2
0	3617	654	1
0	3627	655	1
0	3645	658	1
0	3655	659	2
0	3666	660	1
0	3680	663	1
0	3715	669	1
0	3738	673	1
0	3748	674	1
0	3755	675	1
0	3767	677	1
0	3826	687	1
0	3848	690	1
0	3860	691	1
0	3897	697	1
0	3941	710	1
0	3953	713	4
0	3959	714	3
0	3966	715	1
0	4022	726	1
0	4035	727	1
0	4047	728	2
0	4057	729	2
0	4071	730	1
0	4106	734	1
0	4117	735	1
0	4144	738	2
0	4157	739	2
0	4167	740	2
0	4177	741	3
0	4186	742	4
0	4195	744	1
0	4216	747	1
0	4223	748	1
0	4237	751	1
0	4268	757	1
0	4298	765	1
0	4307	767	1
0	4318	768	1
0	4338	770	1
0	4366	774	1
0	4398	780	1
0	4411	783	1
0	4430	786	1
0	4441	789	1
0	4451	791	1
0	4472	794	4
0	4483	795	4
0	4492	796	4
0	4498	797	3
0	4538	807	1
0	4547	809	1
0	4554	810	1
0	4563	812	1
0	4597	820	1
0	4606	821	2
0	4620	824	3
0	4626	825	3
0	4632	826	3
0	4641	828	1
0	4651	829	1
0	4675	835	1
0	4696	839	1
0	4706	840	2
0	4716	841	2
0	4731	843	1
0	4757	847	1
0	4780	852	1
0	4793	854	1
0	4804	855	2
0	4831	860	1
0	4842	861	1
0	4850	862	2
0	4873	867	1
0	4882	868	2
0	4893	870	1
0	4919	873	3
0	4925	874	2
0	4936	876	1
0	4946	877	1
0	4953	878	1
0	4972	882	1
0	4978	883	2
0	4985	884	1
0	4994	886	1
0	5001	887	1
0	5015	890	1
0	5069	902	1
0	5084	904	1
0	5097	905	2
0	5106	906	2
0	5112	907	3
0	5132	909	1
0	5192	922	1
0	5226	929	1
0	5300	940	1
0	5324	945	1
0	5337	949	1
0	5357	953	1
0	5369	954	1
0	5387	959	1
0	5403	961	1
0	5439	966	1
0	5478	972	1
0	5485	973	1
0	5494	975	1
0	5511	978	3
0	5522	981	1
0	5538	985	1
0	5571	992	1
0	5591	997	1
0	5601	998	1
0	5619	1001	1
0	5647	1011	1
0	5654	1012	1
0	5670	1015	1
0	5684	1019	1
0	5709	1024	1
0	5720	1026	1
0	5800	1041	1
0	5813	1043	1
0	5819	1044	2
0	5826	1045	1
0	5837	1048	1
0	5847	1050	1
0	5857	1051	2
0	5911	1058	1
0	5920	1059	2
0	5936	1061	1
0	5952	1064	1
0	5961	1065	2
0	5971	1066	3
0	5983	1067	2
0	5994	1068	3
0	6004	1069	3
0	6015	1070	3
0	6059	1077	1
0	6098	1084	1
0	6108	1085	1
0	6140	1091	1
0	6156	1094	1
0	6163	1095	1
0	6194	1103	1
0	6235	1111	1
0	6243	1112	1
0	6249	1113	2
0	6268	1116	2
0	6288	1122	1
0	6315	1128	1
0	6329	1130	1
0	6340	1132	1
0	6386	1141	1
0	6504	1159	1
0	6524	1165	1
0	6533	1167	1
0	6540	1168	1
0	6574	1175	1
0	6588	1176	1
0	6619	1180	1
0	6630	1181	1
0	6648	1183	1
0	6660	1184	1
0	6672	1186	1
0	6681	1188	1
0	6707	1195	1
0	6719	1197	1
0	6733	1200	2
0	6743	1201	1
0	6753	1202	1
0	6786	1210	1
0	6819	1218	1
0	6831	1220	1
0	6897	1229	1
0	6957	1240	1
0	6963	1241	2
0	6992	1246	1
0	7018	1249	1
0	7027	1250	2
0	7056	1257	1
0	7067	1260	1
0	7081	1262	1
0	7101	1266	1
0	7121	1268	1
0	7147	1271	1
0	7184	1276	1
0	7191	1277	1
0	7204	1280	3
0	7213	1281	2
0	7251	1289	1
0	7296	1298	1
0	7309	1299	1
0	7328	1302	1
0	7335	1303	2
0	7342	1304	2
0	7353	1305	2
0	7365	1306	1
0	7391	1309	3
0	7397	1310	4
0	7403	1311	3
0	7409	1312	4
0	7418	1313	5
0	7427	1314	1
0	7434	1315	1
0	7445	1318	1
0	7459	1321	1
0	7479	1325	1
0	7498	1329	1
0	7511	1332	1
0	7530	1334	1
0	7540	1335	1
0	7551	1336	1
0	7580	1340	1
0	7592	1341	1
0	7625	1345	1
0	7664	1350	1
0	7689	1353	1
0	7706	1356	4
0	7716	1357	3
0	7722	1358	2
0	7737	1362	1
0	7757	1366	1
0	7767	1367	2
0	7777	1368	1
0	7788	1370	1
0	7807	1372	1
0	7817	1373	1
0	7859	1386	1
0	7908	1393	1
0	7946	1398	1
0	7955	1399	2
0	7974	1406	1
0	8015	1413	1
0	8038	1418	1
0	8046	1419	1
0	8053	1420	2
0	8060	1421	2
0	8072	1424	4
0	8078	1425	3
0	8111	1429	1
0	8122	1430	2
0	8132	1431	2
0	8142	1432	1
0	8195	1445	1
0	8205	1446	1
0	8212	1447	1
0	8241	1455	1
0	8270	1458	3
0	8280	1459	4
0	8290	1460	3
0	8297	1461	2
0	8305	1462	2
0	8311	1463	2
0	8318	1464	3
0	8327	1465	2
0	8336	1466	1
0	8345	1468	1
0	8357	1471	2
0	8416	1483	1
0	8441	1487	1
0	8453	1489	1
0	8491	1498	1
0	8513	1504	1
0	8545	1511	1
0	8591	1518	1
0	8604	1521	1
0	8622	1524	1
0	8646	1527	2
0	8653	1528	2
0	8662	1529	2
0	8671	1530	1
0	8683	1531	1
0	8694	1532	1
0	8705	1533	1
0	8714	1534	1
0	8725	1537	1
0	8734	1539	1
0	8753	1543	1
0	8760	1544	1
0	8778	1548	1
0	8798	1551	1
0	8816	1553	1
0	8858	1565	1
0	8867	1566	2
0	8880	1568	1
0	8900	1571	1
0	8906	1572	2
0	8918	1575	1
0	8938	1578	1
0	8957	1580	1
0	8970	1581	1
0	8982	1582	1
0	8998	1583	2
0	9010	1584	2
0	9041	1588	1
0	9052	1589	1
0	9075	1592	1
0	9113	1598	1
0	9126	1599	1
0	9143	1601	1
0	9153	1602	1
0	9164	1604	1
0	9177	1605	1
0	9188	1606	1
0	9200	1608	1
0	9242	1619	1
0	9267	1626	1
0	9282	1629	4
0	9292	1630	4
0	9301	1631	4
0	9309	1632	3
0	9316	1633	1
0	9337	1637	1
0	9357	1639	1
0	9368	1640	2
0	9384	1642	1
0	9391	1643	1
0	9405	1646	3
0	9415	1647	4
0	9426	1648	3
0	9434	1649	2
0	9444	1651	1
0	9450	1652	2
0	9466	1654	1
0	9492	1662	1
0	9502	1663	1
0	9511	1665	1
0	9596	1691	1
0	9616	1694	1
0	9622	1695	2
0	9646	1701	1
0	9677	1706	1
0	9734	1713	1
0	9790	1721	1
0	9796	1722	2
0	9807	1725	1
0	9818	1726	1
0	9876	1739	1
0	9883	1740	1
0	9920	1745	1
0	9951	1749	1
0	9962	1750	1
0	9984	1753	1
0	10002	1757	1
0	10012	1758	1
0	10039	1762	1
0	10049	1763	1
0	10072	1769	1
0	10092	1774	1
0	10113	1778	1
0	10156	1785	1
0	10175	1788	1
0	10230	1798	1
0	10257	1804	1
0	10293	1811	1
0	10307	1814	1
0	10319	1817	1
0	10330	1820	4
0	10342	1821	1
0	10352	1822	2
0	10381	1827	1
0	10423	1832	1
0	10433	1833	2
0	10461	1838	1
0	10470	1840	1
0	10487	1842	1
0	10519	1846	1
0	10547	1849	2
0	10556	1850	3
0	10584	1854	1
0	10591	1855	1
0	10609	1860	1
0	10627	1862	1
0	10637	1863	1
0	10673	1872	1
0	10683	1873	2
0	10693	1874	2
0	10733	1880	1
0	10739	1881	2
0	10748	1883	1
0	10757	1885	1
0	10782	1889	1
0	10823	1894	1
0	10846	1897	1
0	10862	1900	1
0	10875	1904	1
0	10899	1911	1
0	10950	1920	1
0	10962	1921	1
0	10974	1923	1
0	11024	1933	1
0	11077	1940	1
0	11087	1941	2
0	11099	1942	1
0	11109	1943	1
0	11116	1944	1
0	11144	1949	1
0	11173	1952	2
0	11184	1953	2
0	11193	1954	3
0	11199	1955	3
0	11225	1960	1
0	11251	1963	1
0	11261	1964	2
0	11293	1969	1
0	11300	1970	2
0	11306	1971	2
0	11327	1976	1
0	11334	1977	1
0	11388	1985	1
0	11418	1991	1
0	11425	1992	2
0	11435	1993	2
0	11457	1996	1
0	11526	2008	1
0	11535	2010	1
0	11577	2021	1
0	11596	2024	3
0	11614	2028	1
0	11624	2029	1
0	11658	2036	1
0	11689	2044	1
0	11705	2047	1
0	11715	2048	1
0	11724	2049	1
0	11746	2054	1
0	11756	2055	1
0	11777	2059	1
0	11789	2061	1
0	11800	2063	1
0	11817	2065	1
0	11824	2066	1
0	11847	2070	1
0	11863	2073	1
0	11921	2086	1
0	11933	2087	1
0	12008	2103	1
0	12056	2114	1
0	12066	2115	1
0	12104	2125	1
0	12110	2126	2
0	12121	2128	1
0	12159	2138	1
0	12166	2139	1
0	12174	2140	1
0	12180	2141	2
0	12192	2144	1
0	12205	2147	4
0	12211	2148	4
0	12218	2149	3
0	12227	2150	2
0	12248	2157	1
0	12279	2161	1
0	12290	2162	1
0	12304	2165	1
0	12313	2167	1
0	12322	2169	1
0	12345	2172	2
0	12355	2173	2
0	12363	2174	2
0	12388	2179	1
0	12442	2187	1
0	12494	2202	1
0	12503	2204	1
0	12513	2205	1
0	12530	2210	1
0	12541	2212	1
0	12562	2215	3
0	12568	2216	4
0	12595	2222	1
0	12606	2225	1
0	12634	2233	1
0	12648	2234	1
0	12659	2235	2
0	12683	2241	1
0	12691	2242	1
0	12697	2243	2
0	12709	2246	2
0	12717	2247	1
0	12724	2248	2
0	12733	2249	2
0	12751	2254	1
0	12760	2255	2
0	12820	2263	1
0	12841	2266	1
0	12877	2271	1
0	12906	2276	1
0	12922	2279	2
0	12929	2280	3
0	12935	2281	2
0	12947	2284	1
0	12953	2285	2
0	12964	2288	1
0	12975	2291	1
0	12992	2293	1
0	13003	2294	1
0	13029	2300	1
0	13047	2303	4
0	13053	2304	3
0	13060	2305	3
0	13066	2306	2
0	13077	2308	1
0	13091	2311	1
0	13136	2321	1
0	13147	2324	1
0	13166	2326	1
0	13177	2327	1
0	13209	2332	1
0	13217	2333	1
0	13223	2334	2
0	13233	2335	1
0	13244	2337	1
0	13251	2338	1
0	13264	2341	1
0	13293	2347	1
0	13304	2348	1
0	13377	2365	1
0	13402	2368	1
0	13412	2370	1
0	13418	2371	2
0	13425	2372	1
0	13436	2374	1
0	13453	2376	1
0	13462	2378	1
0	13475	2381	1
0	13487	2383	1
0	13497	2384	1
0	13522	2390	1
0	13538	2393	1
0	13559	2397	1
0	13589	2401	1
0	13601	2403	1
0	13637	2410	1
0	13659	2416	1
0	13667	2417	1
0	13674	2418	2
0	13680	2419	2
0	13706	2422	2
0	13717	2423	3
0	13723	2424	3
0	13732	2425	3
0	13740	2426	4
0	13749	2428	1
0	13768	2430	1
0	13791	2433	1
0	13818	2436	1
0	13829	2437	1
0	13846	2441	1
0	13883	2447	1
0	13890	2448	1
0	13907	2452	1
0	13918	2453	2
0	13967	2460	1
0	13985	2462	1
0	13997	2463	1
0	14016	2466	1
0	14023	2467	1
0	14037	2470	2
0	14058	2475	1
0	14067	2476	2
0	14077	2477	1
0	14104	2482	1
0	14166	2491	1
0	14195	2495	1
0	14214	2502	1
0	14221	2503	1
0	14228	2504	1
0	14240	2507	3
0	14247	2508	1
0	14257	2509	1
0	14270	2511	1
0	14311	2520	1
0	14322	2523	1
0	14331	2525	1
0	14361	2531	1
0	14373	2532	1
0	14384	2533	2
0	14414	2536	3
0	14425	2537	3
0	14435	2538	2
0	14445	2539	1
0	14464	2545	1
0	14474	2546	1
0	14490	2550	1
0	14501	2551	2
0	14544	2560	1
0	14559	2561	1
0	14585	2564	4
0	14596	2565	1
0	14638	2577	1
0	14644	2578	2
0	14655	2580	1
0	14688	2585	1
0	14706	2588	1
0	14717	2589	1
0	14726	2590	2
0	14741	2592	1
0	14772	2595	2
0	14782	2596	2
0	14793	2597	1
0	14812	2599	1
0	14823	2600	1
0	14840	2602	1
0	14861	2606	1
0	14868	2607	1
0	14892	2613	1
0	14908	2616	1
0	14929	2619	1
0	14935	2620	2
0	14961	2628	1
0	15018	2640	1
0	15029	2641	2
0	15050	2645	1
0	15057	2646	1
0	15070	2650	1
0	15080	2651	1
0	15113	2658	1
0	15130	2661	1
0	15142	2663	1
0	15158	2668	1
0	15169	2669	2
0	15186	2671	1
0	15212	2674	1
0	15228	2676	1
0	15260	2681	1
0	15294	2687	1
0	15311	2689	1
0	15333	2692	2
0	15354	2695	1
0	15366	2697	1
0	15386	2702	1
0	15409	2707	1
0	15418	2708	2
0	15506	2723	1
0	15524	2726	1
0	15535	2728	1
0	15552	2730	1
0	15566	2734	1
0	15575	2736	1
0	15588	2739	1
0	15612	2742	1
0	15628	2745	1
0	15640	2747	1
0	15649	2748	2
0	15660	2751	1
0	15678	2755	1
0	15695	2761	1
0	15712	2764	3
0	15719	2765	1
0	15728	2767	1
0	15754	2776	1
0	15765	2777	1
0	15783	2782	1
0	15815	2793	1
0	15826	2795	1
0	15842	2799	1
0	15854	2801	1
0	15873	2804	3
0	15887	2807	1
0	15896	2808	2
0	15921	2813	1
0	15930	2815	1
0	15956	2822	1
0	15981	2828	1
0	16025	2834	1
0	16036	2835	1
0	16067	2839	1
0	16095	2842	3
0	16119	2845	1
0	16130	2846	1
0	16142	2847	1
0	16164	2850	1
0	16175	2851	1
0	16215	2858	1
0	16258	2866	1
0	16269	2869	1
0	16305	2875	1
0	16328	2878	3
0	16346	2881	1
0	16359	2883	1
0	16365	2884	2
0	16390	2888	1
0	16403	2889	1
0	16415	2890	1
0	16429	2891	2
0	16440	2892	2
0	16451	2893	3
0	16475	2896	5
0	16484	2897	5
0	16493	2898	6
0	16501	2899	6
0	16511	2900	1
0	16529	2904	1
0	16549	2908	1
0	16569	2913	1
0	16581	2914	1
0	16627	2921	1
0	16658	2927	1
0	16679	2931	1
0	16688	2932	2
0	16697	2934	1
0	16709	2937	1
0	16718	2938	2
0	16727	2939	1
0	16746	2942	1
0	16757	2943	1
0	16769	2945	1
0	16790	2948	3
0	16799	2949	2
0	16805	2950	3
0	16839	2956	1
0	16853	2959	1
0	16860	2960	1
0	16880	2965	1
0	16887	2966	1
0	16908	2971	1
0	16918	2972	2
0	16943	2975	2
0	16955	2976	1
0	16969	2979	1
0	16978	2981	1
0	16996	2984	1
0	17006	2985	1
0	17013	2986	1
0	17030	2989	1
0	17037	2990	2
0	17044	2991	2
0	17063	2994	4
0	17074	2995	3
0	17084	2996	1
0	17123	3003	1
0	17146	3007	1
0	17170	3010	1
0	17181	3011	2
0	17193	3013	1
0	17200	3014	1
0	17207	3015	1
0	17221	3019	1
0	17228	3020	1
0	17282	3031	1
0	17301	3033	1
0	17320	3035	1
0	17332	3037	1
0	17340	3038	1
0	17349	3039	2
0	17423	3060	1
0	17430	3061	1
0	17449	3064	1
0	17461	3066	1
0	17489	3072	1
0	17495	3073	2
0	17506	3076	1
0	17544	3085	1
0	17560	3087	1
0	17572	3089	1
0	17603	3094	1
0	17610	3095	2
0	17626	3098	4
0	17635	3099	4
0	17641	3100	3
0	17653	3101	4
0	17670	3103	1
0	17687	3105	1
0	17699	3106	1
0	17713	3107	1
0	17731	3109	1
0	17754	3112	1
0	17791	3120	1
0	17800	3122	1
0	17833	3128	1
0	17839	3129	2
0	17848	3131	1
0	17855	3132	1
0	17868	3133	1
0	17887	3135	1
0	17905	3137	1
0	17922	3139	1
0	17953	3142	2
0	17963	3143	2
0	17975	3144	1
0	18010	3149	1
0	18017	3150	1
0	18037	3155	1
0	18094	3167	1
0	18103	3168	2
0	18157	3180	1
0	18185	3186	1
0	18200	3189	4
0	18210	3190	3
0	18220	3191	4
0	18228	3192	5
0	18234	3193	5
0	18245	3194	1
0	18256	3195	1
0	18270	3196	1
0	18325	3206	1
0	18335	3207	1
0	18355	3213	1
0	18373	3217	1
0	18382	3219	1
0	18392	3221	1
0	18398	3222	2
0	18425	3228	1
0	18471	3237	1
0	18482	3238	2
0	18509	3245	1
0	18549	3251	1
0	18563	3254	4
0	18595	3259	1
0	18605	3260	1
0	18621	3262	1
0	18635	3264	1
0	18645	3265	1
0	18674	3269	1
0	18680	3270	2
0	18691	3272	1
0	18697	3273	2
0	18708	3276	5
0	18767	3288	1
0	18774	3289	1
0	18812	3298	1
0	18861	3309	1
0	18894	3319	1
0	18901	3320	1
0	18914	3324	1
0	18923	3326	1
0	18944	3330	1
0	18958	3333	4
0	18965	3334	1
0	18973	3335	1
0	18979	3336	2
0	19002	3340	1
0	19029	3347	1
0	19040	3348	1
0	19072	3353	1
0	19097	3356	1
0	19161	3368	1
0	19201	3373	1
0	19222	3377	1
0	19229	3378	1
0	19257	3383	1
0	19268	3384	1
0	19345	3406	1
0	19380	3414	1
0	19390	3415	2
0	19408	3420	1
0	19441	3427	1
0	19462	3430	4
0	19484	3435	1
0	19505	3439	1
0	19544	3445	1
0	19561	3447	1
0	19577	3449	1
0	19598	3453	1
0	19621	3457	1
0	19630	3458	2
0	19640	3459	1
0	19683	3468	1
0	19707	3471	1
0	19718	3473	1
0	19735	3475	1
0	19827	3493	1
0	19833	3494	2
0	19853	3499	1
0	19892	3506	1
0	19906	3508	1
0	19917	3510	1
0	19943	3516	1
0	19950	3517	1
0	19961	3518	1
0	19976	3520	1
0	19987	3523	1
0	19998	3526	1
0	20011	3530	1
0	20025	3532	1
0	20044	3535	1
0	20056	3536	1
0	20081	3542	1
0	20088	3543	1
0	20097	3545	1
0	20122	3550	1
0	20156	3557	1
0	20163	3558	1
0	20177	3560	1
0	20199	3568	1
0	20205	3569	2
0	20214	3571	1
0	20226	3574	3
0	20249	3578	1
0	20274	3582	1
0	20314	3593	1
0	20323	3595	1
0	20346	3599	1
0	20355	3600	1
0	20361	3601	2
0	20370	3602	3
0	20381	3604	1
0	20398	3607	2
0	20411	3611	1
0	20453	3622	1
0	20484	3627	1
0	20490	3628	2
0	20501	3630	1
0	20525	3637	1
0	20545	3643	1
0	20576	3647	1
0	20585	3648	2
0	20625	3657	1
0	20634	3658	2
0	20647	3660	1
0	20663	3663	1
0	20679	3667	1
0	20701	3673	1
0	20773	3684	1
0	20780	3685	1
0	20789	3687	1
0	20796	3688	1
0	20808	3691	3
0	20815	3692	1
0	20825	3694	1
0	20831	3695	2
0	20888	3703	1
0	20899	3704	1
0	20950	3717	1
0	20963	3720	1
0	20984	3724	1
0	21000	3727	1
0	21012	3730	1
0	21036	3736	1
0	21089	3745	1
0	21111	3750	1
0	21122	3751	2
0	21138	3753	1
0	21165	3759	1
0	21178	3760	2
0	21189	3761	1
0	21200	3762	1
0	21245	3771	1
0	21270	3776	1
0	21280	3777	1
0	21303	3781	1
0	21328	3784	1
0	21344	3786	1
0	21361	3788	1
0	21390	3793	1
0	21400	3794	2
0	21410	3795	3
0	21433	3798	2
0	21444	3799	2
0	21535	3818	1
0	21550	3823	1
0	21561	3826	1
0	21572	3829	1
0	21592	3833	1
0	21606	3836	1
0	21658	3847	1
0	21669	3848	1
0	21687	3851	1
0	21694	3852	1
0	21714	3857	1
0	21727	3860	1
0	21746	3863	1
0	21770	3869	1
0	21784	3871	1
0	21794	3872	1
0	21816	3878	1
0	21825	3880	1
0	21844	3883	3
0	21861	3887	1
0	21867	3888	2
0	21877	3889	1
0	21891	3890	1
0	21916	3895	1
0	21955	3902	1
0	21972	3908	1
0	22003	3916	1
0	22030	3922	1
0	22048	3925	3
0	22054	3926	4
0	22065	3929	1
0	22072	3930	1
0	22088	3933	1
0	22097	3935	1
0	22108	3938	1
0	22130	3944	1
0	22137	3945	1
0	22207	3956	1
0	22233	3959	2
0	22245	3960	1
0	22257	3961	1
0	22278	3963	1
0	22304	3966	1
0	22333	3970	1
0	22342	3971	1
0	22351	3972	2
0	22359	3973	3
0	22387	3980	1
0	22413	3983	4
0	22438	3987	1
0	22512	4002	1
0	22522	4003	2
0	22536	4006	1
0	22560	4009	1
0	22578	4012	1
0	22613	4022	1
0	22640	4028	1
0	22651	4029	1
0	22680	4032	4
0	22690	4033	4
0	22700	4034	5
0	22707	4035	5
0	22714	4036	3
0	22720	4037	3
0	22726	4038	3
0	22773	4048	1
0	22799	4056	1
0	22889	4070	1
0	22928	4075	1
0	22963	4080	1
0	22995	4086	1
0	23007	4087	1
0	23061	4098	1
0	23074	4099	1
0	23084	4100	2
0	23101	4102	1
0	23107	4103	2
0	23114	4104	1
0	23152	4115	1
0	23159	4116	1
0	23167	4117	1
0	23173	4118	2
0	23185	4121	1
0	23191	4122	2
0	23202	4125	1
0	23218	4128	1
0	23241	4135	1
0	23251	4136	2
0	23320	4151	1
0	23351	4159	1
0	23371	4164	1
0	23410	4173	1
0	23416	4174	2
0	23423	4175	1
0	23430	4176	1
0	23444	4178	1
0	23460	4181	1
0	23476	4183	1
0	23503	4188	1
0	23531	4195	1
0	23575	4200	1
0	23586	4201	1
0	23597	4202	1
0	23608	4203	1
0	23619	4204	1
0	23633	4207	1
0	23646	4210	1
0	23674	4214	1
0	23690	4217	1
0	23696	4218	2
0	23737	4230	1
0	23776	4238	1
0	23790	4241	1
0	23799	4242	2
0	23871	4253	1
0	23887	4256	1
0	23896	4258	1
0	23906	4259	1
0	23932	4262	3
0	23942	4263	1
0	23984	4269	1
0	23994	4271	1
0	24004	4272	2
0	24015	4273	2
0	24024	4274	1
0	24031	4275	1
0	24043	4278	1
0	24049	4279	2
0	24075	4282	3
0	24086	4283	3
0	24093	4284	3
0	24099	4285	3
0	24105	4286	4
0	24112	4287	4
0	24118	4288	2
0	24129	4290	1
0	24160	4294	1
0	24170	4295	2
0	24191	4298	1
0	24203	4300	1
0	24210	4301	1
0	24227	4306	1
0	24239	4308	1
0	24249	4310	1
0	24260	4311	2
0	24272	4312	2
0	24282	4313	2
0	24311	4319	1
0	24353	4331	1
0	24383	4335	1
0	24421	4340	1
0	24434	4341	1
0	24447	4342	1
0	24471	4345	1
0	24555	4356	1
0	24573	4358	1
0	24585	4359	2
0	24596	4360	2
0	24672	4372	1
0	24685	4373	2
0	24697	4374	2
0	24708	4375	2
0	24718	4376	2
0	24728	4377	2
0	24785	4385	1
0	24796	4387	1
0	24815	4389	1
0	24837	4392	1
0	24857	4395	3
0	24863	4396	3
0	24870	4397	1
0	24893	4400	1
0	24920	4407	1
0	24945	4412	1
0	24953	4413	1
0	24962	4414	2
0	24973	4416	1
0	24980	4417	1
0	25008	4422	1
0	25018	4423	1
0	25025	4424	1
0	25037	4427	1
0	25046	4428	2
0	25061	4431	1
0	25081	4436	1
0	25091	4437	2
0	25099	4438	3
0	25105	4439	3
0	25133	4447	1
0	25139	4448	2
0	25146	4449	1
0	25157	4451	1
0	25170	4453	1
0	25179	4454	2
0	25188	4455	2
0	25201	4456	3
0	25212	4457	4
0	25223	4458	2
0	25241	4461	1
0	25264	4464	1
0	25283	4466	1
0	25293	4467	1
0	25307	4469	1
0	25348	4478	1
0	25357	4479	2
0	25364	4480	1
0	25371	4481	1
0	25391	4486	1
0	25410	4489	3
0	25443	4495	1
0	25452	4496	2
0	25482	4500	1
0	25492	4501	1
0	25500	4502	1
0	25506	4503	2
0	25513	4504	1
0	25531	4508	1
0	25545	4510	1
0	25560	4513	1
0	25585	4516	1
0	25595	4517	1
0	25609	4519	1
0	25630	4523	1
0	25670	4532	1
0	25688	4535	1
0	25721	4539	1
0	25738	4541	1
0	25747	4543	1
0	25759	4546	3
0	25786	4551	1
0	25827	4564	1
0	25854	4567	1
0	25877	4570	1
0	25889	4572	1
0	25914	4575	1
0	25926	4576	1
0	25949	4580	1
0	25970	4584	1
0	26007	4593	1
0	26029	4598	1
0	26051	4604	1
0	26058	4605	1
0	26081	4611	1
0	26087	4612	2
0	26136	4620	1
0	26148	4621	1
0	26157	4622	2
0	26172	4624	1
0	26198	4627	4
0	26208	4628	2
0	26240	4633	1
0	26247	4634	1
0	26261	4636	1
0	26269	4637	1
0	26275	4638	2
0	26282	4639	1
0	26289	4640	1
0	26338	4652	1
0	26364	4657	1
0	26384	4662	1
0	26398	4664	1
0	26405	4665	1
0	26450	4674	1
0	26469	4676	1
0	26490	4680	1
0	26497	4681	1
0	26509	4682	1
0	26519	4683	2
0	26539	4686	3
0	26545	4687	3
0	26558	4691	1
0	26566	4692	1
0	26575	4693	2
0	26626	4710	1
0	26652	4714	1
0	26711	4725	1
0	26727	4727	1
0	26737	4728	1
0	26751	4731	2
0	26776	4736	1
0	26797	4739	1
0	26828	4743	1
0	26877	4754	1
0	26894	4756	1
0	26971	4772	1
0	26985	4774	1
0	26995	4775	1
0	27004	4776	1
0	27040	4781	1
0	27064	4788	1
0	27073	4790	1
0	27083	4791	1
0	27094	4793	1
0	27137	4803	1
0	27153	4805	1
0	27164	4808	1
0	27237	4822	1
0	27244	4823	1
0	27256	4826	3
0	27278	4831	1
0	27293	4834	1
0	27301	4835	2
0	27308	4836	2
0	27314	4837	3
0	27320	4838	3
0	27337	4840	1
0	27379	4846	1
0	27390	4847	1
0	27412	4850	3
0	27424	4851	4
0	27436	4852	5
0	27446	4853	3
0	27455	4854	4
0	27461	4855	5
0	27471	4856	3
0	27479	4857	2
0	27494	4862	1
0	27504	4863	1
0	27521	4866	1
0	27540	4868	1
0	27549	4869	2
0	27556	4870	1
0	27572	4873	1
0	27579	4874	1
0	27604	4878	1
0	27614	4879	1
0	27635	4883	1
0	27644	4884	2
0	27664	4887	3
0	27673	4888	2
0	27682	4890	1
0	27689	4891	1
0	27704	4896	1
0	27736	4901	1
0	27746	4902	1
0	27762	4905	1
0	27769	4906	1
0	27800	4914	1
0	27829	4919	1
0	27840	4920	2
0	27852	4921	1
0	27870	4923	1
0	27880	4924	2
0	27888	4925	2
0	27895	4926	1
0	27913	4929	1
0	27923	4930	1
0	27943	4935	1
0	27960	4938	2
0	27990	4943	1
0	28000	4944	1
0	28009	4945	1
0	28070	4956	1
0	28083	4957	1
0	28093	4958	2
0	28113	4960	1
0	28160	4968	1
0	28176	4971	1
0	28190	4974	3
0	28237	4981	1
0	28245	4982	1
0	28251	4983	2
0	28262	4986	1
0	28273	4988	1
0	28296	4993	1
0	28303	4994	1
0	28321	4997	1
0	28338	4999	1
1	2345	411	1
1	2345	411	0
1	2359	414	1
1	2359	414	0
1	2384	418	1
1	2384	418	0
1	2395	421	1
1	2395	421	0
1	2404	423	1
1	2404	423	0
1	2405	423	1
1	2410	424	2
1	2412	424	1
1	2418	425	0
1	2434	429	1
1	2434	429	0
1	2480	441	1
1	2480	441	0
1	2543	452	1
1	2543	452	0
1	2575	458	1
1	2575	458	0
1	2576	458	1
1	2586	459	0
1	2612	464	1
1	2612	464	0
1	2629	466	1
1	2629	466	0
1	2676	474	1
1	2676	474	0
1	2677	474	1
1	2687	475	0
1	2736	484	1
1	2736	484	0
1	2772	489	1
1	2772	489	0
1	2781	490	1
1	2784	490	0
1	2901	516	1
1	2901	516	0
1	2919	518	1
1	2919	518	0
1	3029	537	1
1	3029	537	0
1	3064	542	1
1	3064	542	0
1	3065	542	1
1	3070	543	2
1	3074	543	1
1	3084	544	0
1	3091	545	1
1	3095	545	0
1	3106	548	1
1	3106	548	0
1	3120	551	1
1	3120	551	0
1	3127	552	1
1	3130	552	0
1	3157	559	1
1	3157	559	0
1	3199	569	1
1	3199	569	0
1	3211	571	1
1	3211	571	0
1	3284	587	1
1	3284	587	0
1	3299	589	1
1	3299	589	0
1	3329	594	1
1	3329	594	0
1	3330	594	1
1	3340	595	0
1	3394	604	1
1	3394	604	0
1	3435	617	1
1	3435	617	0
1	3460	623	1
1	3460	623	0
1	3476	627	1
1	3476	627	0
1	3513	634	1
1	3513	634	0
1	3574	646	1
1	3574	646	0
1	3575	646	1
1	3586	647	0
1	3613	653	1
1	3613	653	0
1	3618	654	1
1	3621	654	0
1	3636	657	1
1	3636	657	0
1	3637	657	1
1	3648	658	0
1	3657	659	1
1	3659	659	0
1	3676	662	1
1	3676	662	0
1	3709	668	1
1	3709	668	0
1	3731	672	1
1	3731	672	0
1	3740	673	1
1	3742	673	0
1	3749	674	1
1	3751	674	0
1	3760	676	1
1	3760	676	0
1	3820	686	1
1	3820	686	0
1	3839	689	1
1	3839	689	0
1	3850	690	1
1	3853	690	0
1	3889	696	1
1	3889	696	0
1	3936	709	1
1	3936	709	0
1	3937	709	1
1	3945	711	2
1	3949	712	1
1	3955	713	0
1	3960	714	1
1	3962	714	0
1	4013	725	1
1	4013	725	0
1	4024	726	1
1	4025	726	2
1	4028	726	1
1	4037	727	2
1	4040	727	1
1	4050	728	0
1	4059	729	1
1	4064	729	0
1	4099	733	1
1	4099	733	0
1	4108	734	1
1	4110	734	0
1	4127	736	1
1	4136	737	0
1	4137	737	1
1	4146	738	2
1	4147	738	3
1	4148	738	4
1	4150	738	3
1	4160	739	2
1	4170	740	1
1	4180	741	0
1	4191	743	1
1	4191	743	0
1	4210	746	1
1	4210	746	0
1	4217	747	1
1	4219	747	0
1	4230	750	1
1	4230	750	0
1	4262	756	1
1	4262	756	0
1	4294	764	1
1	4294	764	0
1	4303	766	1
1	4303	766	0
1	4308	767	1
1	4312	767	0
1	4330	769	1
1	4330	769	0
1	4360	773	1
1	4360	773	0
1	4392	779	1
1	4392	779	0
1	4405	782	1
1	4405	782	0
1	4426	785	1
1	4426	785	0
1	4437	788	1
1	4437	788	0
1	4446	790	1
1	4446	790	0
1	4447	790	1
1	4452	791	2
1	4456	792	3
1	4463	793	2
1	4474	794	3
1	4476	794	2
1	4486	795	1
1	4494	796	0
1	4534	806	1
1	4534	806	0
1	4543	808	1
1	4543	808	0
1	4548	809	1
1	4550	809	0
1	4559	811	1
1	4559	811	0
1	4588	819	1
1	4588	819	0
1	4589	819	1
1	4600	820	0
1	4607	821	1
1	4611	822	2
1	4615	823	1
1	4616	823	2
1	4622	824	1
1	4628	825	0
1	4637	827	1
1	4637	827	0
1	4642	828	1
1	4645	828	0
1	4671	834	1
1	4671	834	0
1	4687	838	1
1	4687	838	0
1	4688	838	1
1	4698	839	2
1	4700	839	1
1	4710	840	0
1	4725	842	1
1	4725	842	0
1	4751	846	1
1	4751	846	0
1	4776	851	1
1	4776	851	0
1	4785	853	1
1	4785	853	0
1	4786	853	1
1	4797	854	0
1	4827	859	1
1	4827	859	0
1	4832	860	1
1	4833	860	2
1	4836	860	1
1	4846	861	0
1	4864	866	1
1	4864	866	0
1	4865	866	1
1	4876	867	0
1	4887	869	1
1	4887	869	0
1	4895	870	1
1	4912	872	0
1	4913	872	1
1	4921	873	0
1	4930	875	1
1	4930	875	0
1	4938	876	1
1	4940	876	0
1	4947	877	1
1	4949	877	0
1	4965	881	1
1	4965	881	0
1	4966	881	1
1	4974	882	0
1	4979	883	1
1	4981	883	0
1	4990	885	1
1	4990	885	0
1	4995	886	1
1	4997	886	0
1	5009	889	1
1	5009	889	0
1	5062	901	1
1	5062	901	0
1	5077	903	1
1	5077	903	0
1	5078	903	1
1	5086	904	2
1	5087	904	3
1	5090	904	2
1	5100	905	1
1	5108	906	0
1	5120	908	1
1	5120	908	0
1	5188	921	1
1	5188	921	0
1	5222	928	1
1	5222	928	0
1	5293	939	1
1	5293	939	0
1	5320	944	1
1	5320	944	0
1	5333	948	1
1	5333	948	0
1	5351	952	1
1	5351	952	0
1	5359	953	1
1	5362	953	0
1	5383	958	1
1	5383	958	0
1	5395	960	1
1	5395	960	0
1	5432	965	1
1	5432	965	0
1	5474	971	1
1	5474	971	0
1	5479	972	1
1	5481	972	0
1	5490	974	1
1	5490	974	0
1	5495	975	1
1	5505	977	0
1	5518	980	1
1	5518	980	0
1	5531	984	1
1	5531	984	0
1	5565	991	1
1	5565	991	0
1	5585	996	1
1	5585	996	0
1	5593	997	1
1	5595	997	0
1	5613	1000	1
1	5613	1000	0
1	5643	1010	1
1	5643	1010	0
1	5648	1011	1
1	5650	1011	0
1	5664	1014	1
1	5664	1014	0
1	5680	1018	1
1	5680	1018	0
1	5703	1023	1
1	5703	1023	0
1	5714	1025	1
1	5714	1025	0
1	5794	1040	1
1	5794	1040	0
1	5808	1042	1
1	5808	1042	0
1	5809	1042	1
1	5815	1043	0
1	5820	1044	1
1	5822	1044	0
1	5833	1047	1
1	5833	1047	0
1	5842	1049	1
1	5842	1049	0
1	5843	1049	1
1	5851	1050	0
1	5903	1057	1
1	5903	1057	0
1	5904	1057	1
1	5914	1058	0
1	5928	1060	1
1	5928	1060	0
1	5946	1063	1
1	5946	1063	0
1	5947	1063	1
1	5948	1063	2
1	5955	1064	1
1	5962	1065	2
1	5963	1065	3
1	5967	1065	2
1	5972	1066	3
1	5977	1066	2
1	5984	1067	3
1	5988	1067	2
1	5998	1068	1
1	6009	1069	0
1	6051	1076	1
1	6051	1076	0
1	6091	1083	1
1	6091	1083	0
1	6100	1084	1
1	6102	1084	0
1	6136	1090	1
1	6136	1090	0
1	6150	1093	1
1	6150	1093	0
1	6157	1094	1
1	6159	1094	0
1	6190	1102	1
1	6190	1102	0
1	6229	1110	1
1	6229	1110	0
1	6236	1111	1
1	6237	1111	2
1	6239	1111	1
1	6245	1112	0
1	6256	1114	1
1	6262	1115	0
1	6284	1121	1
1	6284	1121	0
1	6311	1127	1
1	6311	1127	0
1	6323	1129	1
1	6323	1129	0
1	6334	1131	1
1	6334	1131	0
1	6380	1140	1
1	6380	1140	0
1	6498	1158	1
1	6498	1158	0
1	6520	1164	1
1	6520	1164	0
1	6529	1166	1
1	6529	1166	0
1	6534	1167	1
1	6536	1167	0
1	6566	1174	1
1	6566	1174	0
1	6576	1175	1
1	6581	1175	0
1	6612	1179	1
1	6612	1179	0
1	6621	1180	1
1	6623	1180	0
1	6640	1182	1
1	6640	1182	0
1	6650	1183	1
1	6653	1183	0
1	6668	1185	1
1	6668	1185	0
1	6677	1187	1
1	6677	1187	0
1	6700	1194	1
1	6700	1194	0
1	6715	1196	1
1	6715	1196	0
1	6723	1198	1
1	6727	1199	0
1	6735	1200	1
1	6737	1200	0
1	6744	1201	1
1	6747	1201	0
1	6782	1209	1
1	6782	1209	0
1	6811	1217	1
1	6811	1217	0
1	6827	1219	1
1	6827	1219	0
1	6888	1228	1
1	6888	1228	0
1	6952	1239	1
1	6952	1239	0
1	6953	1239	1
1	6959	1240	0
1	6985	1245	1
1	6985	1245	0
1	7010	1248	1
1	7010	1248	0
1	7011	1248	1
1	7021	1249	0
1	7052	1256	1
1	7052	1256	0
1	7063	1259	1
1	7063	1259	0
1	7075	1261	1
1	7075	1261	0
1	7095	1265	1
1	7095	1265	0
1	7112	1267	1
1	7112	1267	0
1	7138	1270	1
1	7138	1270	0
1	7178	1275	1
1	7178	1275	0
1	7185	1276	1
1	7187	1276	0
1	7192	1277	1
1	7199	1279	0
1	7200	1279	1
1	7207	1280	0
1	7247	1288	1
1	7247	1288	0
1	7289	1297	1
1	7289	1297	0
1	7298	1298	1
1	7302	1298	0
1	7323	1301	1
1	7323	1301	0
1	7324	1301	1
1	7329	1302	2
1	7331	1302	1
1	7336	1303	2
1	7338	1303	1
1	7347	1304	0
1	7354	1305	1
1	7359	1305	0
1	7366	1306	1
1	7367	1306	2
1	7382	1308	1
1	7383	1308	2
1	7384	1308	3
1	7385	1308	4
1	7393	1309	3
1	7399	1310	2
1	7405	1311	1
1	7412	1312	0
1	7419	1313	1
1	7423	1313	0
1	7428	1314	1
1	7430	1314	0
1	7441	1317	1
1	7441	1317	0
1	7452	1320	1
1	7452	1320	0
1	7475	1324	1
1	7475	1324	0
1	7494	1328	1
1	7494	1328	0
1	7505	1331	1
1	7505	1331	0
1	7522	1333	1
1	7522	1333	0
1	7532	1334	1
1	7534	1334	0
1	7541	1335	1
1	7545	1335	0
1	7573	1339	1
1	7573	1339	0
1	7582	1340	1
1	7585	1340	0
1	7616	1344	1
1	7616	1344	0
1	7654	1349	1
1	7654	1349	0
1	7680	1352	1
1	7680	1352	0
1	7681	1352	1
1	7696	1354	2
1	7700	1355	1
1	7708	1356	2
1	7710	1356	1
1	7718	1357	0
1	7731	1361	1
1	7731	1361	0
1	7749	1365	1
1	7749	1365	0
1	7750	1365	1
1	7760	1366	0
1	7769	1367	1
1	7771	1367	0
1	7782	1369	1
1	7782	1369	0
1	7799	1371	1
1	7799	1371	0
1	7809	1372	1
1	7811	1372	0
1	7855	1385	1
1	7855	1385	0
1	7900	1392	1
1	7900	1392	0
1	7938	1397	1
1	7938	1397	0
1	7939	1397	1
1	7949	1398	0
1	7970	1405	1
1	7970	1405	0
1	8007	1412	1
1	8007	1412	0
1	8034	1417	1
1	8034	1417	0
1	8039	1418	1
1	8040	1418	2
1	8042	1418	1
1	8047	1419	2
1	8049	1419	1
1	8054	1420	2
1	8056	1420	1
1	8064	1422	2
1	8068	1423	1
1	8074	1424	0
1	8103	1428	1
1	8103	1428	0
1	8104	1428	1
1	8113	1429	2
1	8115	1429	1
1	8125	1430	0
1	8134	1431	1
1	8136	1431	0
1	8189	1444	1
1	8189	1444	0
1	8197	1445	1
1	8199	1445	0
1	8206	1446	1
1	8208	1446	0
1	8233	1454	1
1	8233	1454	0
1	8243	1455	1
1	8244	1455	2
1	8262	1457	1
1	8263	1457	2
1	8273	1458	1
1	8282	1459	2
1	8284	1459	1
1	8291	1460	2
1	8293	1460	1
1	8298	1461	2
1	8299	1461	3
1	8301	1461	2
1	8307	1462	1
1	8312	1463	2
1	8314	1463	1
1	8321	1464	0
1	8328	1465	1
1	8332	1465	0
1	8341	1467	1
1	8341	1467	0
1	8349	1469	1
1	8353	1470	0
1	8410	1482	1
1	8410	1482	0
1	8435	1486	1
1	8435	1486	0
1	8449	1488	1
1	8449	1488	0
1	8487	1497	1
1	8487	1497	0
1	8509	1503	1
1	8509	1503	0
1	8538	1510	1
1	8538	1510	0
1	8585	1517	1
1	8585	1517	0
1	8598	1520	1
1	8598	1520	0
1	8614	1523	1
1	8614	1523	0
1	8631	1525	1