version 3
run Experimentos-359-20260508-20:05:54-29633
attr configname Experimentos
attr datetime 20260508-20:05:54
attr datetimef 20260508-200554
attr experiment Experimentos
attr inifile TwoQueues.ini
attr iterationvars "$p=0.6, $q=0.3, $Y=20, $m=3"
attr iterationvarsd p=0.6/q=0.3/Y=20/m=3
attr iterationvarsf p=0.6,q=0.3,Y=20,m=3-
attr measurement "$p=0.6, $q=0.3, $Y=20, $m=3"
attr network TwoQueues
attr processid 29633
attr repetition 19
attr replication #19
attr resultdir results
attr runnumber 359
attr seedset 359
itervar Y 20
itervar m 3
itervar p 0.6
itervar q 0.3
config description "Barrido completo de parámetros Proyecto 12"
config **.source1.p 0.6
config **.source1.q 0.2
config **.source2.p 0.6
config **.source2.q 0.3
config **.serverWithMaintenance.Y 20
config **.serverWithMaintenance.m 3
config network TwoQueues
config cpu-time-limit 5000s
config sim-time-limit 5000s
config warmup-period 400s
config repeat 20
config output-scalar-file results/Experimentos-p=0.6,q=0.3,Y=20,m=3--#19.sca
config output-vector-file results/Experimentos-p=0.6,q=0.3,Y=20,m=3--#19.vec
config **.vector-recording true

vector 0 TwoQueues.serverWithMaintenance residenceTime2:vector ETV
attr recordingmode vector
attr source delay2
attr title "Residence Time Class 2"
vector 1 TwoQueues.queue2 queueLengthStats:vector ETV
attr recordingmode vector
attr source qlen
attr title "Average Queue Length"
vector 2 TwoQueues.queue1 queueLengthStats:vector ETV
attr recordingmode vector
attr source qlen
attr title "Average Queue Length"
vector 3 TwoQueues.server residenceTime1:vector ETV
attr recordingmode vector
attr source delay1
attr title "Residence Time Class 1"
vector 4 TwoQueues.server throughputStats1:vector ETV
attr recordingmode vector
attr source throughput1
attr title "Throughput Class 1"
0	2607	400	1
0	2642	410	1
0	2675	416	1
0	2702	419	1
0	2756	426	1
0	2774	428	1
0	2793	430	1
0	2812	432	1
0	2846	436	1
0	2857	437	1
0	2868	438	1
0	2879	439	1
0	2897	442	1
0	2907	443	1
0	2916	444	1
0	2925	446	1
0	2939	448	1
0	2950	450	1
0	2992	455	1
0	3010	457	1
0	3020	458	2
0	3029	459	2
0	3063	465	1
0	3073	466	2
0	3133	477	1
0	3162	483	1
0	3172	484	1
0	3181	486	1
0	3190	488	1
0	3197	489	1
0	3213	491	1
0	3229	492	1
0	3255	495	1
0	3269	496	1
0	3303	500	1
0	3366	509	1
0	3403	517	1
0	3432	524	1
0	3452	528	1
0	3464	529	1
0	3473	530	2
0	3482	531	3
0	3511	535	5
0	3519	536	2
0	3526	537	2
0	3532	538	3
0	3543	539	3
0	3554	540	2
0	3562	541	2
0	3625	554	1
0	3644	556	1
0	3655	557	1
0	3672	559	1
0	3767	576	1
0	3795	585	1
0	3802	586	1
0	3812	587	1
0	3823	589	1
0	3865	596	1
0	3891	599	1
0	3912	602	1
0	3949	606	1
0	3981	610	5
0	3993	611	5
0	4004	612	5
0	4014	613	3
0	4024	614	1
0	4049	617	1
0	4081	622	1
0	4087	623	2
0	4118	630	1
0	4130	631	1
0	4198	647	1
0	4209	648	1
0	4227	653	1
0	4243	655	1
0	4253	656	1
0	4274	664	1
0	4316	670	1
0	4336	675	1
0	4343	676	1
0	4400	686	1
0	4419	690	1
0	4434	692	1
0	4453	694	1
0	4464	695	2
0	4478	697	1
0	4518	703	1
0	4525	704	1
0	4538	705	1
0	4551	706	1
0	4562	707	1
0	4575	708	1
0	4585	709	2
0	4597	710	3
0	4607	711	2
0	4623	713	1
0	4630	714	1
0	4651	719	1
0	4660	720	2
0	4681	723	1
0	4714	727	1
0	4745	731	3
0	4785	737	1
0	4811	740	1
0	4829	743	1
0	4869	751	1
0	4879	752	2
0	4898	757	1
0	4904	758	2
0	4916	760	1
0	4927	761	1
0	4939	762	1
0	4951	763	1
0	5014	773	1
0	5139	791	1
0	5150	792	1
0	5161	793	1
0	5194	798	1
0	5206	800	1
0	5260	808	1
0	5271	809	2
0	5303	813	6
0	5328	816	1
0	5338	817	2
0	5349	818	3
0	5357	819	3
0	5369	821	1
0	5387	823	1
0	5397	824	1
0	5404	825	1
0	5415	826	1
0	5427	827	2
0	5439	828	1
0	5467	834	1
0	5485	836	1
0	5502	838	1
0	5537	848	1
0	5600	859	1
0	5609	860	2
0	5635	863	1
0	5646	864	1
0	5679	868	3
0	5691	869	2
0	5711	871	1
0	5751	876	1
0	5761	877	2
0	5796	881	1
0	5807	882	2
0	5817	883	3
0	5825	884	3
0	5834	885	4
0	5842	886	4
0	5880	891	1
0	5911	897	1
0	5923	898	1
0	5936	899	1
0	5945	900	2
0	5955	901	1
0	5973	903	1
0	5989	906	1
0	6031	913	1
0	6056	917	4
0	6062	918	4
0	6083	921	1
0	6092	923	1
0	6103	926	1
0	6138	932	1
0	6189	939	1
0	6200	940	1
0	6216	942	1
0	6222	943	2
0	6239	945	1
0	6307	953	1
0	6317	954	2
0	6352	959	1
0	6382	963	1
0	6389	964	1
0	6399	965	1
0	6417	967	1
0	6427	968	1
0	6439	969	1
0	6518	982	1
0	6544	985	1
0	6564	988	1
0	6570	989	2
0	6577	990	1
0	6597	994	1
0	6633	1000	1
0	6639	1001	2
0	6657	1004	1
0	6685	1011	1
0	6691	1012	2
0	6734	1021	1
0	6744	1022	1
0	6794	1031	1
0	6808	1033	1
0	6818	1034	1
0	6830	1035	1
0	6907	1045	1
0	6938	1048	1
0	6950	1049	2
0	6981	1053	5
0	6993	1054	1
0	7003	1055	2
0	7015	1056	1
0	7027	1057	1
0	7058	1061	1
0	7148	1073	1
0	7167	1075	1
0	7181	1076	2
0	7192	1077	2
0	7203	1078	2
0	7215	1079	1
0	7226	1080	1
0	7251	1084	1
0	7270	1087	1
0	7281	1088	2
0	7302	1090	1
0	7314	1091	1
0	7345	1095	1
0	7372	1098	1
0	7406	1102	2
0	7418	1103	3
0	7462	1110	1
0	7473	1111	1
0	7489	1114	1
0	7504	1116	1
0	7516	1117	1
0	7536	1120	1
0	7549	1121	1
0	7560	1122	2
0	7606	1131	1
0	7613	1132	1
0	7620	1133	1
0	7634	1135	1
0	7660	1143	1
0	7693	1148	1
0	7734	1154	1
0	7757	1159	1
0	7780	1163	1
0	7787	1164	1
0	7811	1168	4
0	7837	1172	1
0	7849	1173	1
0	7873	1178	1
0	7883	1179	1
0	7893	1180	1
0	7904	1182	1
0	7911	1183	1
0	7928	1185	1
0	7937	1186	2
0	7944	1187	1
0	7973	1193	1
0	8020	1200	1
0	8048	1204	1
0	8059	1206	1
0	8085	1209	1
0	8146	1217	1
0	8170	1220	1
0	8182	1221	1
0	8199	1223	1
0	8222	1227	4
0	8228	1228	4
0	8238	1229	4
0	8246	1230	2
0	8253	1231	1
0	8260	1232	1
0	8272	1233	1
0	8325	1242	1
0	8338	1244	1
0	8348	1245	2
0	8360	1247	1
0	8391	1255	1
0	8413	1258	1
0	8433	1260	1
0	8456	1263	1
0	8498	1269	1
0	8516	1271	1
0	8541	1274	1
0	8592	1281	1
0	8606	1282	2
0	8642	1286	6
0	8652	1287	2
0	8668	1288	1
0	8680	1289	1
0	8699	1291	1
0	8718	1293	1
0	8728	1294	2
0	8768	1299	1
0	8801	1303	1
0	8814	1304	1
0	8833	1306	1
0	8844	1307	2
0	8907	1316	1
0	8923	1318	1
0	8937	1319	1
0	8949	1320	1
0	8959	1321	2
0	8994	1326	1
0	9006	1327	1
0	9017	1328	1
0	9039	1333	1
0	9047	1334	1
0	9057	1335	2
0	9069	1336	2
0	9091	1340	1
0	9117	1343	1
0	9143	1347	1
0	9153	1348	2
0	9170	1351	1
0	9178	1352	1
0	9184	1353	2
0	9202	1355	1
0	9211	1356	2
0	9217	1357	3
0	9238	1360	1
0	9256	1362	1
0	9268	1363	2
0	9278	1364	2
0	9287	1365	3
0	9298	1366	3
0	9319	1370	1
0	9329	1371	2
0	9361	1375	1
0	9387	1380	1
0	9398	1381	1
0	9413	1383	1
0	9430	1385	1
0	9442	1386	2
0	9452	1387	2
0	9461	1388	3
0	9467	1389	2
0	9474	1390	1
0	9483	1392	1
0	9496	1396	1
0	9518	1401	1
0	9530	1402	1
0	9556	1405	1
0	9587	1409	1
0	9636	1422	1
0	9654	1424	1
0	9685	1428	2
0	9712	1431	1
0	9723	1432	1
0	9737	1433	1
0	9757	1435	1
0	9781	1438	1
0	9800	1440	1
0	9812	1441	1
0	9824	1442	2
0	9834	1443	2
0	9850	1445	1
0	9857	1446	1
0	9867	1448	1
0	9876	1449	2
0	9887	1451	1
0	9921	1456	1
0	9951	1459	1
0	9961	1460	2
0	9987	1463	1
0	10024	1468	1
0	10047	1472	4
0	10071	1476	1
0	10093	1478	1
0	10105	1479	1
0	10117	1480	2
0	10129	1481	2
0	10140	1482	2
0	10151	1483	3
0	10162	1484	3
0	10173	1485	2
0	10203	1490	1
0	10242	1495	1
0	10259	1497	1
0	10270	1498	1
0	10282	1499	1
0	10313	1505	1
0	10339	1508	1
0	10349	1509	1
0	10356	1510	1
0	10365	1512	1
0	10402	1520	1
0	10409	1521	1
0	10424	1523	1
0	10430	1524	2
0	10437	1525	1
0	10474	1531	1
0	10499	1536	1
0	10510	1537	1
0	10541	1541	1
0	10612	1550	1
0	10623	1551	2
0	10634	1552	2
0	10646	1553	1
0	10655	1554	2
0	10662	1555	1
0	10673	1556	1
0	10720	1564	1
0	10732	1567	1
0	10739	1568	2
0	10745	1569	2
0	10776	1573	3
0	10813	1579	1
0	10851	1584	1
0	10875	1587	1
0	10884	1588	2
0	10895	1589	1
0	10915	1591	1
0	10950	1595	1
0	10974	1598	1
0	11041	1608	1
0	11060	1610	1
0	11090	1613	1
0	11102	1614	1
0	11113	1615	1
0	11126	1616	1
0	11165	1621	1
0	11188	1624	1
0	11200	1626	1
0	11207	1627	1
0	11216	1629	1
0	11233	1633	3
0	11242	1634	3
0	11306	1644	1
0	11324	1646	1
0	11335	1647	2
0	11357	1650	1
0	11388	1657	1
0	11405	1659	1
0	11416	1660	1
0	11468	1667	1
0	11479	1669	1
0	11496	1673	1
0	11502	1674	2
0	11581	1687	1
0	11594	1688	2
0	11606	1689	1
0	11617	1690	2
0	11650	1694	1
0	11698	1707	1
0	11721	1711	1
0	11740	1715	3
0	11747	1716	1
0	11783	1720	1
0	11829	1726	1
0	11841	1727	1
0	11852	1728	1
0	11871	1730	1
0	11883	1731	1
0	11894	1732	1
0	11937	1738	1
0	11943	1739	2
0	11971	1743	1
0	11981	1744	2
0	11999	1746	1
0	12099	1767	1
0	12106	1768	1
0	12129	1771	1
0	12138	1772	2
0	12149	1773	3
0	12167	1775	1
0	12196	1779	1
0	12280	1791	1
0	12304	1794	1
0	12330	1797	1
0	12342	1798	1
0	12366	1801	1
0	12377	1802	1
0	12389	1804	1
0	12409	1809	1
0	12420	1812	1
0	12474	1824	1
0	12486	1825	2
0	12532	1832	1
0	12560	1838	1
0	12571	1839	1
0	12606	1844	1
0	12670	1856	1
0	12680	1857	1
0	12698	1861	1
0	12705	1862	1
0	12737	1866	1
0	12748	1867	1
0	12768	1872	1
0	12787	1874	1
0	12831	1881	1
0	12866	1886	1
0	12973	1904	1
0	13007	1909	1
0	13048	1917	1
0	13060	1918	1
0	13070	1919	1
0	13077	1920	1
0	13085	1921	1
0	13095	1922	2
0	13104	1923	2
0	13115	1924	2
0	13126	1925	2
0	13165	1929	1
0	13182	1931	1
0	13221	1936	1
0	13260	1941	1
0	13273	1942	1
0	13285	1943	1
0	13311	1946	1
0	13322	1947	2
0	13341	1949	1
0	13367	1952	1
0	13378	1953	1
0	13391	1954	1
0	13401	1955	2
0	13413	1956	1
0	13425	1957	1
0	13462	1962	1
0	13473	1963	1
0	13510	1970	1
0	13610	1986	1
0	13695	2004	1
0	13712	2006	1
0	13724	2008	1
0	13774	2017	1
0	13796	2021	2
0	13803	2022	1
0	13819	2024	1
0	13830	2025	1
0	13837	2026	2
0	13848	2027	2
0	13874	2031	1
0	13886	2032	1
0	13909	2035	1
0	13925	2037	1
0	13935	2038	1
0	13946	2040	1
0	13965	2043	1
0	13996	2051	1
0	14048	2062	1
0	14059	2063	1
0	14068	2064	2
0	14074	2065	2
0	14100	2069	1
0	14120	2071	1
0	14153	2075	4
0	14176	2078	1
0	14203	2085	1
0	14270	2095	1
0	14277	2096	1
0	14333	2104	1
0	14362	2107	1
0	14381	2109	1
0	14419	2114	1
0	14430	2115	1
0	14461	2119	1
0	14509	2126	1
0	14551	2131	1
0	14562	2132	1
0	14588	2136	1
0	14594	2137	2
0	14617	2141	1
0	14632	2143	1
0	14642	2144	2
0	14651	2145	2
0	14665	2149	5
0	14671	2150	2
0	14682	2151	1
0	14694	2152	2
0	14760	2167	1
0	14770	2168	1
0	14795	2173	1
0	14807	2174	2
0	14868	2182	1
0	14878	2183	2
0	14944	2192	1
0	14963	2194	1
0	14974	2195	1
0	14992	2198	1
0	15013	2201	1
0	15034	2204	1
0	15045	2205	1
0	15062	2207	1
0	15082	2213	1
0	15096	2215	1
0	15127	2219	1
0	15137	2220	1
0	15165	2225	1
0	15176	2226	2
0	15199	2229	1
0	15208	2230	2
0	15214	2231	3
0	15231	2234	1
0	15237	2235	2
0	15278	2244	1
0	15290	2245	2
0	15299	2246	2
0	15317	2250	1
0	15324	2251	1
0	15345	2254	1
0	15352	2255	1
0	15365	2259	1
0	15376	2261	1
0	15388	2262	1
0	15410	2264	1
0	15442	2268	2
0	15453	2269	3
0	15465	2271	1
0	15485	2274	1
0	15510	2277	1
0	15522	2278	1
0	15541	2280	1
0	15622	2296	1
0	15634	2297	1
0	15653	2300	1
0	15679	2304	1
0	15701	2309	1
0	15734	2318	1
0	15745	2320	1
0	15758	2321	1
0	15774	2323	1
0	15783	2325	1
0	15792	2327	1
0	15806	2329	1
0	15813	2330	1
0	15834	2334	1
0	15860	2337	1
0	15882	2340	1
0	15893	2341	2
0	15905	2342	1
0	15915	2343	1
0	15986	2357	1
0	15998	2358	1
0	16016	2360	1
0	16029	2362	1
0	16035	2363	2
0	16053	2366	1
0	16072	2369	1
0	16113	2378	1
0	16131	2380	1
0	16141	2381	1
0	16148	2382	1
0	16176	2388	1
0	16186	2389	2
0	16197	2390	2
0	16219	2394	1
0	16229	2395	2
0	16238	2396	2
0	16247	2397	2
0	16301	2408	1
0	16315	2411	1
0	16337	2415	1
0	16349	2416	1
0	16374	2422	1
0	16402	2426	1
0	16428	2429	1
0	16481	2437	1
0	16494	2438	1
0	16507	2439	1
0	16517	2440	2
0	16552	2446	1
0	16591	2452	1
0	16604	2453	1
0	16656	2462	1
0	16693	2467	1
0	16725	2471	3
0	16735	2472	1
0	16743	2473	1
0	16750	2474	2
0	16756	2475	2
0	16763	2476	1
0	16772	2478	1
0	16786	2480	1
0	16793	2481	1
0	16876	2495	1
0	16928	2501	1
0	16954	2504	1
0	16964	2505	2
0	17001	2509	1
0	17013	2510	1
0	17023	2511	2
0	17040	2513	1
0	17051	2514	1
0	17082	2518	1
0	17194	2533	1
0	17238	2539	1
0	17287	2545	1
0	17332	2555	1
0	17340	2556	1
0	17346	2557	2
0	17365	2562	1
0	17374	2563	2
0	17385	2564	3
0	17398	2565	2
0	17408	2566	2
0	17425	2568	1
0	17445	2574	1
0	17461	2576	1
0	17515	2583	1
0	17530	2585	1
0	17548	2587	1
0	17597	2595	1
0	17606	2597	1
0	17644	2602	1
0	17685	2609	1
0	17717	2613	3
0	17726	2614	2
0	17735	2616	1
0	17744	2618	1
0	17755	2621	1
0	17765	2622	1
0	17774	2623	1
0	17784	2624	1
0	17796	2625	1
0	17830	2631	1
0	17866	2639	1
0	17890	2642	1
0	17922	2648	1
0	17933	2649	1
0	17950	2652	1
0	17963	2653	1
0	17981	2655	1
0	18006	2658	1
0	18019	2660	1
0	18025	2661	2
0	18063	2667	1
0	18078	2672	1
0	18085	2673	1
0	18115	2678	1
0	18154	2685	1
0	18165	2686	1
0	18214	2692	1
0	18233	2694	1
0	18244	2695	1
0	18271	2698	1
0	18283	2699	2
0	18309	2702	1
0	18347	2707	1
0	18357	2708	2
0	18375	2710	1
0	18400	2713	1
0	18412	2714	1
0	18424	2715	1
0	18434	2716	2
0	18471	2723	1
0	18494	2727	5
0	18531	2734	1
0	18543	2735	1
0	18563	2738	1
0	18573	2739	1
0	18584	2740	1
0	18593	2741	2
0	18599	2742	2
0	18606	2743	1
0	18638	2747	1
0	18655	2749	1
0	18686	2757	1
0	18715	2761	1
0	18734	2763	1
0	18745	2764	1
0	18769	2767	1
0	18809	2774	1
0	18821	2775	1
0	18862	2780	1
0	18900	2785	1
0	18939	2790	1
0	18963	2795	1
0	18987	2798	1
0	18994	2799	1
0	19001	2800	1
0	19017	2803	1
0	19034	2807	1
0	19048	2808	1
0	19060	2809	1
0	19072	2810	1
0	19085	2811	1
0	19095	2812	2
0	19126	2816	1
0	19152	2819	1
0	19163	2820	1
0	19191	2825	1
0	19242	2832	1
0	19269	2835	1
0	19281	2836	1
0	19307	2839	1
0	19366	2847	1
0	19413	2854	1
0	19425	2855	1
0	19436	2856	2
0	19450	2859	1
0	19466	2861	1
0	19487	2863	1
0	19497	2864	2
0	19509	2865	1
0	19519	2866	1
0	19535	2869	1
0	19547	2871	1
0	19556	2872	2
0	19565	2874	1
0	19576	2875	1
0	19588	2876	1
0	19601	2877	1
0	19612	2878	2
0	19624	2879	1
0	19671	2887	1
0	19707	2891	5
0	19731	2894	1
0	19741	2895	2
0	19757	2897	1
0	19773	2900	1
0	19780	2901	1
0	19811	2905	1
0	19832	2907	1
0	19870	2912	1
0	19890	2914	1
0	19919	2918	1
0	19935	2920	1
0	19947	2921	1
0	19994	2929	1
0	20022	2935	1
0	20083	2945	1
0	20101	2948	1
0	20117	2951	1
0	20139	2958	1
0	20156	2963	1
0	20268	2979	1
0	20311	2984	1
0	20329	2986	1
0	20348	2988	1
0	20375	2991	1
0	20386	2992	2
0	20423	2997	1
0	20434	2998	1
0	20445	2999	1
0	20470	3003	1
0	20507	3015	1
0	20545	3022	1
0	20555	3023	1
0	20578	3027	1
0	20637	3038	1
0	20649	3039	1
0	20659	3040	1
0	20685	3044	1
0	20717	3048	1
0	20729	3049	1
0	20751	3053	3
0	20806	3068	1
0	20816	3069	1
0	20836	3073	1
0	20846	3074	1
0	20860	3076	1
0	20885	3080	1
0	20901	3082	1
0	20946	3088	1
0	20956	3089	2
0	20983	3094	1
0	20994	3095	1
0	21002	3096	2
0	21013	3098	1
0	21027	3100	1
0	21065	3105	1
0	21075	3106	1
0	21100	3109	1
0	21136	3115	1
0	21146	3116	2
0	21174	3120	3
0	21186	3121	4
0	21225	3128	1
0	21236	3129	2
0	21264	3133	1
0	21290	3136	1
0	21300	3137	1
0	21332	3143	1
0	21378	3151	1
0	21391	3152	1
0	21422	3158	1
0	21431	3160	1
0	21483	3168	1
0	21516	3172	1
0	21541	3175	1
0	21555	3176	1
0	21571	3177	1
0	21589	3179	1
0	21599	3180	2
0	21643	3186	1
0	21679	3190	2
0	21689	3191	2
0	21699	3192	3
0	21726	3197	1
0	21733	3198	1
0	21752	3202	1
0	21758	3203	2
0	21785	3207	1
0	21852	3220	1
0	21887	3225	1
0	21931	3231	1
0	21941	3232	1
0	21950	3234	1
0	21961	3235	1
0	21978	3237	1
0	21988	3238	1
0	22001	3239	1
0	22019	3241	1
0	22049	3245	1
0	22062	3246	1
0	22093	3250	4
0	22106	3254	1
0	22115	3256	1
0	22145	3259	1
0	22156	3260	2
0	22209	3268	1
0	22238	3274	1
0	22257	3277	1
0	22267	3278	1
0	22293	3284	1
0	22351	3294	1
0	22391	3304	1
0	22400	3306	1
0	22417	3308	1
0	22451	3312	1
0	22478	3315	1
0	22489	3316	1
0	22506	3318	1
0	22541	3324	1
0	22612	3337	1
0	22631	3341	4
0	22645	3343	1
0	22656	3346	1
0	22665	3348	1
0	22678	3351	1
0	22688	3352	1
0	22733	3357	1
0	22746	3358	1
0	22783	3363	1
0	22806	3366	1
0	22829	3369	1
0	22839	3370	1
0	22880	3378	1
0	22894	3382	1
0	22904	3383	2
0	22921	3386	1
0	22933	3387	1
0	22946	3388	1
0	22960	3389	1
0	22977	3391	1
0	23008	3395	3
0	23018	3396	3
0	23025	3397	2
0	23031	3398	2
0	23040	3400	1
0	23049	3402	1
0	23056	3403	1
0	23141	3416	1
0	23152	3417	1
0	23171	3419	1
0	23198	3423	1
0	23225	3427	1
0	23231	3428	2
0	23247	3431	1
0	23258	3434	1
0	23272	3437	1
0	23290	3439	1
0	23350	3452	1
0	23356	3453	2
0	23367	3456	1
0	23397	3461	1
0	23417	3463	1
0	23435	3465	1
0	23452	3467	1
0	23462	3468	1
0	23469	3469	1
0	23490	3472	1
0	23528	3477	1
0	23539	3478	1
0	23569	3481	1
0	23618	3488	1
0	23677	3496	1
0	23723	3506	1
0	23732	3508	1
0	23762	3512	1
0	23772	3513	1
0	23785	3516	1
0	23807	3518	1
0	23877	3529	1
0	23888	3530	1
0	23912	3534	1
0	23927	3536	1
0	23939	3537	1
0	23951	3538	1
0	23974	3541	1
0	23994	3545	1
0	24019	3549	1
0	24044	3552	1
0	24097	3559	1
0	24111	3561	1
0	24121	3562	1
0	24192	3575	1
0	24202	3576	1
0	24248	3583	1
0	24301	3591	1
0	24317	3595	1
0	24326	3597	1
0	24342	3600	1
0	24349	3601	1
0	24356	3602	1
0	24382	3606	3
0	24395	3607	1
0	24406	3608	1
0	24429	3613	1
0	24436	3614	1
0	24480	3621	1
0	24487	3622	1
0	24496	3624	1
0	24538	3633	1
0	24564	3636	1
0	24576	3637	1
0	24596	3639	1
0	24638	3646	1
0	24650	3647	1
0	24661	3648	1
0	24676	3649	1
0	24689	3650	2
0	24699	3651	2
0	24721	3654	1
0	24755	3660	1
0	24773	3664	1
0	24784	3665	2
0	24808	3668	1
0	24839	3674	1
0	24863	3677	1
0	24886	3680	1
0	24900	3682	1
0	24927	3688	1
0	24944	3692	1
0	24950	3693	2
0	24957	3694	1
0	24968	3697	1
0	24984	3700	1
0	25014	3707	1
0	25026	3708	2
0	25058	3712	1
0	25105	3719	1
0	25127	3724	1
0	25172	3730	1
0	25217	3737	1
0	25267	3746	1
0	25290	3750	1
0	25339	3762	1
0	25360	3765	1
0	25372	3766	1
0	25385	3767	1
0	25396	3768	1
0	25413	3770	1
0	25496	3781	1
0	25507	3782	1
0	25525	3785	1
0	25532	3786	1
0	25544	3789	1
0	25550	3790	2
0	25566	3794	1
0	25607	3799	1
0	25631	3802	1
0	25643	3803	1
0	25669	3812	1
0	25679	3813	1
0	25701	3819	1
0	25718	3821	1
0	25736	3824	1
0	25763	3827	1
0	25830	3836	1
0	25865	3841	1
0	25891	3844	1
0	25993	3862	1
0	26032	3867	1
0	26053	3871	1
0	26062	3873	1
0	26069	3874	1
0	26091	3877	1
0	26127	3881	1
0	26139	3882	2
0	26149	3883	2
0	26159	3884	3
0	26193	3888	1
0	26227	3892	1
0	26245	3894	1
0	26279	3898	5
0	26291	3899	3
0	26301	3900	2
0	26318	3901	3
0	26342	3904	1
0	26379	3909	1
0	26435	3922	1
0	26555	3939	1
0	26576	3946	1
0	26594	3951	1
0	26617	3955	1
0	26628	3956	1
0	26636	3957	2
0	26643	3958	1
0	26654	3960	1
0	26710	3972	1
0	26720	3973	2
0	26773	3982	1
0	26799	3986	1
0	26826	3991	1
0	26930	4012	1
0	26950	4016	1
0	26961	4018	1
0	26981	4020	1
0	27025	4025	1
0	27044	4027	1
0	27057	4028	1
0	27081	4031	1
0	27107	4034	1
0	27125	4036	1
0	27158	4041	1
0	27164	4042	2
0	27170	4043	3
0	27180	4044	4
0	27226	4052	1
0	27236	4053	2
0	27258	4056	1
0	27302	4066	1
0	27354	4077	1
0	27379	4080	1
0	27392	4084	5
0	27399	4085	1
0	27406	4086	1
0	27433	4092	1
0	27457	4095	1
0	27479	4097	1
0	27498	4099	1
0	27525	4102	1
0	27542	4104	1
0	27570	4108	1
0	27593	4111	1
0	27619	4114	1
0	27640	4116	1
0	27676	4121	1
0	27696	4126	1
0	27710	4128	1
0	27742	4134	1
0	27759	4136	1
0	27785	4139	1
0	27808	4142	1
0	27837	4146	3
0	27847	4147	3
0	27860	4148	1
0	27871	4149	2
0	27880	4150	3
0	27894	4153	1
0	27928	4159	1
0	27935	4160	1
0	27966	4167	1
0	27986	4169	1
0	27995	4170	2
0	28064	4179	1
0	28096	4183	1
0	28108	4184	1
0	28125	4186	1
0	28136	4187	1
0	28147	4188	1
0	28173	4191	1
0	28203	4195	1
0	28228	4199	1
0	28246	4203	2
0	28267	4205	1
0	28314	4211	1
0	28332	4213	1
0	28356	4216	1
0	28402	4222	1
0	28471	4233	1
0	28489	4235	1
0	28510	4239	1
0	28516	4240	2
0	28539	4244	1
0	28625	4256	1
0	28638	4257	1
0	28647	4258	2
0	28662	4263	1
0	28669	4264	1
0	28679	4265	1
0	28717	4272	1
0	28766	4282	1
0	28772	4283	2
0	28795	4289	1
0	28829	4295	1
0	28839	4296	1
0	28850	4298	1
0	28868	4300	1
0	28906	4307	1
0	28915	4309	1
0	28924	4311	1
0	28943	4314	1
0	28983	4319	1
0	28996	4320	1
0	29008	4321	1
0	29020	4322	2
0	29031	4323	2
0	29043	4324	2
0	29066	4327	1
0	29100	4334	1
0	29133	4339	1
0	29145	4340	1
0	29154	4341	2
0	29177	4346	1
0	29187	4347	1
0	29194	4348	1
0	29240	4357	1
0	29270	4362	1
0	29290	4364	1
0	29301	4365	2
0	29310	4366	2
0	29337	4370	1
0	29382	4377	1
0	29560	4415	1
0	29572	4417	1
0	29603	4421	1
0	29663	4430	1
0	29672	4432	1
0	29685	4436	1
0	29718	4445	1
0	29737	4448	1
0	29746	4449	2
0	29755	4451	1
0	29802	4458	1
0	29832	4464	1
0	29850	4467	1
0	29862	4468	1
0	29875	4469	1
0	29894	4471	1
0	29954	4486	1
0	29970	4488	1
0	29996	4491	1
0	30019	4494	1
0	30045	4497	1
0	30055	4498	2
0	30078	4501	1
0	30109	4507	1
0	30119	4508	2
0	30166	4514	1
0	30178	4515	1
0	30206	4521	1
0	30218	4522	1
0	30232	4523	2
0	30259	4527	5
0	30269	4528	6
0	30282	4529	6
0	30294	4530	2
0	30304	4531	2
0	30358	4539	1
0	30391	4545	1
0	30443	4552	1
0	30468	4555	1
0	30479	4556	2
0	30496	4560	1
0	30511	4561	2
0	30521	4562	2
0	30532	4563	3
0	30563	4567	1
0	30576	4568	1
0	30603	4571	1
0	30613	4572	2
0	30626	4573	1
0	30646	4575	1
0	30682	4579	4
0	30693	4580	3
0	30730	4585	1
0	30759	4589	1
0	30769	4590	1
0	30787	4592	1
0	30801	4595	1
0	30822	4598	1
0	30839	4601	1
0	30846	4602	2
0	30852	4603	2
0	30872	4607	1
0	30884	4608	1
0	30901	4610	1
0	30924	4616	1
0	30933	4617	2
0	30942	4618	1
0	30986	4626	1
0	31003	4627	2
0	31014	4628	2
0	31045	4632	6
0	31058	4633	1
0	31070	4634	2
0	31080	4635	2
0	31123	4643	1
0	31173	4651	1
0	31201	4654	1
0	31213	4655	1
0	31223	4656	2
0	31327	4672	1
0	31339	4673	2
0	31349	4674	2
0	31373	4678	1
0	31417	4685	1
0	31432	4689	1
0	31441	4690	2
0	31452	4691	3
0	31502	4697	1
0	31519	4699	1
0	31538	4701	1
0	31572	4705	3
0	31589	4707	1
0	31657	4719	1
0	31667	4720	2
0	31677	4721	3
0	31760	4736	1
0	31788	4740	1
0	31816	4744	1
0	31834	4746	1
0	31845	4747	1
0	31858	4748	1
0	31869	4749	1
0	31890	4753	1
0	31896	4754	2
0	31905	4756	1
0	31912	4757	1
0	31923	4758	1
0	31956	4762	1
0	31992	4767	1
0	32005	4768	1
0	32073	4777	1
0	32144	4790	1
0	32155	4791	1
0	32219	4798	1
0	32269	4805	1
0	32369	4821	1
0	32404	4826	1
0	32431	4829	1
0	32441	4830	2
0	32451	4831	1
0	32475	4834	1
0	32516	4839	1
0	32555	4844	1
0	32589	4850	1
0	32606	4852	1
0	32617	4853	1
0	32634	4856	1
0	32645	4857	1
0	32681	4863	1
0	32690	4864	2
0	32714	4868	4
0	32723	4869	2
0	32736	4873	1
0	32764	4878	1
0	32779	4879	1
0	32859	4892	1
0	32889	4895	1
0	32920	4899	1
0	32931	4900	1
0	32948	4902	1
0	32960	4903	1
0	32981	4905	1
0	32992	4906	1
0	33005	4907	1
0	33066	4915	1
0	33139	4927	1
0	33146	4928	1
0	33185	4935	1
0	33192	4936	1
0	33203	4937	1
0	33230	4941	2
0	33260	4947	1
0	33269	4949	1
0	33290	4953	1
0	33308	4956	1
0	33315	4957	1
0	33334	4964	1
0	33341	4965	1
0	33370	4970	1
0	33395	4973	1
0	33415	4977	1
0	33430	4979	1
0	33440	4980	2
0	33489	4986	1
0	33500	4987	1
0	33513	4988	1
0	33524	4989	1
0	33578	4996	1
0	33589	4997	2
0	33600	4998	2
1	2636	409	1
1	2636	409	0
1	2671	415	1
1	2671	415	0
1	2691	418	1
1	2691	418	0
1	2748	425	1
1	2748	425	0
1	2766	427	1
1	2766	427	0
1	2784	429	1
1	2784	429	0
1	2803	431	1
1	2803	431	0
1	2839	435	1
1	2839	435	0
1	2848	436	1
1	2850	436	0
1	2859	437	1
1	2861	437	0
1	2870	438	1
1	2872	438	0
1	2893	441	1
1	2893	441	0
1	2898	442	1
1	2901	442	0
1	2908	443	1
1	2912	443	0
1	2921	445	1
1	2921	445	0
1	2933	447	1
1	2933	447	0
1	2944	449	1
1	2944	449	0
1	2984	454	1
1	2984	454	0
1	3002	456	1
1	3002	456	0
1	3003	456	1
1	3012	457	2
1	3014	457	1
1	3023	458	0
1	3055	464	1
1	3055	464	0
1	3056	464	1
1	3066	465	0
1	3127	476	1
1	3127	476	0
1	3154	482	1
1	3154	482	0
1	3164	483	1
1	3166	483	0
1	3177	485	1
1	3177	485	0
1	3186	487	1
1	3186	487	0
1	3191	488	1
1	3193	488	0
1	3205	490	1
1	3205	490	0
1	3215	491	1
1	3222	491	0
1	3245	494	1
1	3245	494	0
1	3257	495	1
1	3262	495	0
1	3294	499	1
1	3294	499	0
1	3359	508	1
1	3359	508	0
1	3399	516	1
1	3399	516	0
1	3428	523	1
1	3428	523	0
1	3446	527	1
1	3446	527	0
1	3454	528	1
1	3455	528	2
1	3456	528	3
1	3458	528	2
1	3467	529	1
1	3474	530	2
1	3478	530	1
1	3504	534	0
1	3505	534	1
1	3512	535	2
1	3513	535	3
1	3515	535	2
1	3520	536	3
1	3522	536	2
1	3528	537	1
1	3533	538	2
1	3537	538	1
1	3544	539	2
1	3548	539	1
1	3558	540	0
1	3614	553	1
1	3614	553	0
1	3637	555	1
1	3637	555	0
1	3646	556	1
1	3648	556	0
1	3665	558	1
1	3665	558	0
1	3763	575	1
1	3763	575	0
1	3791	584	1
1	3791	584	0
1	3796	585	1
1	3798	585	0
1	3803	586	1
1	3806	586	0
1	3819	588	1
1	3819	588	0
1	3858	595	1
1	3858	595	0
1	3884	598	1
1	3884	598	0
1	3905	601	1
1	3905	601	0
1	3940	605	1
1	3940	605	0
1	3941	605	1
1	3951	606	2
1	3959	607	3
1	3974	609	2
1	3983	610	3
1	3986	610	2
1	3997	611	1
1	4007	612	0
1	4016	613	1
1	4018	613	0
1	4042	616	1
1	4042	616	0
1	4076	621	1
1	4076	621	0
1	4077	621	1
1	4083	622	0
1	4111	629	1
1	4111	629	0
1	4120	630	1
1	4123	630	0
1	4191	646	1
1	4191	646	0
1	4200	647	1
1	4202	647	0
1	4223	652	1
1	4223	652	0
1	4236	654	1
1	4236	654	0
1	4245	655	1
1	4247	655	0
1	4270	663	1
1	4270	663	0
1	4310	669	1
1	4310	669	0
1	4332	674	1
1	4332	674	0
1	4337	675	1
1	4339	675	0
1	4393	685	1
1	4393	685	0
1	4413	689	1
1	4413	689	0
1	4427	691	1
1	4427	691	0
1	4444	693	1
1	4444	693	0
1	4445	693	1
1	4457	694	0
1	4472	696	1
1	4472	696	0
1	4512	702	1
1	4512	702	0
1	4519	703	1
1	4521	703	0
1	4526	704	1
1	4532	704	0
1	4539	705	1
1	4545	705	0
1	4552	706	1
1	4556	706	0
1	4563	707	1
1	4564	707	2
1	4565	707	3
1	4569	707	2
1	4579	708	1
1	4586	709	2
1	4591	709	1
1	4601	710	0
1	4617	712	1
1	4617	712	0
1	4624	713	1
1	4626	713	0
1	4646	718	1
1	4646	718	0
1	4647	718	1
1	4654	719	0
1	4674	722	1
1	4674	722	0
1	4707	726	1
1	4707	726	0
1	4725	728	1
1	4739	730	0
1	4777	736	1
1	4777	736	0
1	4804	739	1
1	4804	739	0
1	4825	742	1
1	4825	742	0
1	4861	750	1
1	4861	750	0
1	4862	750	1
1	4872	751	0
1	4893	756	1
1	4893	756	0
1	4894	756	1
1	4900	757	0
1	4909	759	1
1	4909	759	0
1	4918	760	1
1	4920	760	0
1	4929	761	1
1	4932	761	0
1	4941	762	1
1	4944	762	0
1	5008	772	1
1	5008	772	0
1	5132	790	1
1	5132	790	0
1	5141	791	1
1	5143	791	0
1	5152	792	1
1	5154	792	0
1	5190	797	1
1	5190	797	0
1	5199	799	1
1	5199	799	0
1	5250	807	1
1	5250	807	0
1	5251	807	1
1	5252	807	2
1	5264	808	1
1	5295	812	0
1	5320	815	1
1	5320	815	0
1	5321	815	1
1	5322	815	2
1	5329	816	3
1	5332	816	2
1	5343	817	1
1	5353	818	0
1	5362	820	1
1	5362	820	0
1	5379	822	1
1	5379	822	0
1	5389	823	1
1	5391	823	0
1	5398	824	1
1	5400	824	0
1	5405	825	1
1	5406	825	2
1	5409	825	1
1	5421	826	0
1	5428	827	1
1	5433	827	0
1	5463	833	1
1	5463	833	0
1	5478	835	1
1	5478	835	0
1	5495	837	1
1	5495	837	0
1	5530	847	1
1	5530	847	0
1	5592	858	1
1	5592	858	0
1	5593	858	1
1	5603	859	0
1	5628	862	1
1	5628	862	0
1	5637	863	1
1	5639	863	0
1	5656	865	1
1	5671	867	0
1	5672	867	1
1	5684	868	0
1	5704	870	1
1	5704	870	0
1	5743	875	1
1	5743	875	0
1	5744	875	1
1	5754	876	0
1	5787	880	1
1	5787	880	0
1	5788	880	1
1	5789	880	2
1	5798	881	3
1	5799	881	4
1	5801	881	3
1	5808	882	4
1	5811	882	3
1	5821	883	2
1	5828	884	1
1	5838	885	0
1	5873	890	1
1	5873	890	0
1	5905	896	1
1	5905	896	0
1	5913	897	1
1	5916	897	0
1	5925	898	1
1	5926	898	2
1	5929	898	1
1	5939	899	0
1	5946	900	1
1	5949	900	0
1	5966	902	1
1	5966	902	0
1	5983	905	1
1	5983	905	0
1	6027	912	1
1	6027	912	0
1	6032	913	1
1	6036	914	2
1	6050	916	1
1	6058	917	0
1	6077	920	1
1	6077	920	0
1	6088	922	1
1	6088	922	0
1	6099	925	1
1	6099	925	0
1	6130	931	1
1	6130	931	0
1	6183	938	1
1	6183	938	0
1	6190	939	1
1	6194	939	0
1	6209	941	1
1	6209	941	0
1	6210	941	1
1	6218	942	0
1	6232	944	1
1	6232	944	0
1	6296	952	1
1	6296	952	0
1	6297	952	1
1	6310	953	0
1	6345	958	1
1	6345	958	0
1	6376	962	1
1	6376	962	0
1	6383	963	1
1	6385	963	0
1	6390	964	1
1	6393	964	0
1	6409	966	1
1	6409	966	0
1	6419	967	1
1	6421	967	0
1	6428	968	1
1	6433	968	0
1	6510	981	1
1	6510	981	0
1	6536	984	1
1	6536	984	0
1	6559	987	1
1	6559	987	0
1	6560	987	1
1	6566	988	0
1	6571	989	1
1	6573	989	0
1	6590	993	1
1	6590	993	0
1	6628	999	1
1	6628	999	0
1	6629	999	1
1	6635	1000	0
1	6650	1003	1
1	6650	1003	0
1	6680	1010	1
1	6680	1010	0
1	6681	1010	1
1	6687	1011	0
1	6730	1020	1
1	6730	1020	0
1	6735	1021	1
1	6738	1021	0
1	6788	1030	1
1	6788	1030	0
1	6802	1032	1
1	6802	1032	0
1	6809	1033	1
1	6812	1033	0
1	6819	1034	1
1	6824	1034	0
1	6899	1044	1
1	6899	1044	0
1	6929	1047	1
1	6929	1047	0
1	6930	1047	1
1	6940	1048	2
1	6943	1048	1
1	6973	1052	0
1	6983	1053	1
1	6984	1053	2
1	6986	1053	1
1	6996	1054	0
1	7005	1055	1
1	7008	1055	0
1	7017	1056	1
1	7020	1056	0
1	7050	1060	1
1	7050	1060	0
1	7141	1072	1
1	7141	1072	0
1	7158	1074	1
1	7158	1074	0
1	7159	1074	1
1	7169	1075	2
1	7174	1075	1
1	7183	1076	2
1	7185	1076	1
1	7196	1077	0
1	7205	1078	1
1	7208	1078	0
1	7217	1079	1
1	7219	1079	0
1	7247	1083	1
1	7247	1083	0
1	7263	1086	1
1	7263	1086	0
1	7264	1086	1
1	7274	1087	0
1	7292	1089	1
1	7292	1089	0
1	7304	1090	1
1	7307	1090	0
1	7338	1094	1
1	7338	1094	0
1	7364	1097	1
1	7364	1097	0
1	7389	1100	1
1	7390	1100	2
1	7398	1101	1
1	7411	1102	0
1	7455	1109	1
1	7455	1109	0
1	7464	1110	1
1	7466	1110	0
1	7483	1113	1
1	7483	1113	0
1	7497	1115	1
1	7497	1115	0
1	7506	1116	1
1	7509	1116	0
1	7530	1119	1
1	7530	1119	0
1	7538	1120	1
1	7539	1120	2
1	7542	1120	1
1	7553	1121	0
1	7600	1130	1
1	7600	1130	0
1	7607	1131	1
1	7609	1131	0
1	7614	1132	1
1	7616	1132	0
1	7628	1134	1
1	7628	1134	0
1	7656	1142	1
1	7656	1142	0
1	7686	1147	1
1	7686	1147	0
1	7727	1153	1
1	7727	1153	0
1	7753	1158	1
1	7753	1158	0
1	7776	1162	1
1	7776	1162	0
1	7781	1163	1
1	7783	1163	0
1	7788	1164	1
1	7807	1167	0
1	7830	1171	1
1	7830	1171	0
1	7839	1172	1
1	7842	1172	0
1	7867	1177	1
1	7867	1177	0
1	7875	1178	1
1	7877	1178	0
1	7884	1179	1
1	7887	1179	0
1	7900	1181	1
1	7900	1181	0
1	7905	1182	1
1	7907	1182	0
1	7920	1184	1
1	7920	1184	0
1	7921	1184	1
1	7931	1185	0
1	7938	1186	1
1	7940	1186	0
1	7965	1192	1
1	7965	1192	0
1	8010	1199	1
1	8010	1199	0
1	8042	1203	1
1	8042	1203	0
1	8053	1205	1
1	8053	1205	0
1	8078	1208	1
1	8078	1208	0
1	8139	1216	1
1	8139	1216	0
1	8162	1219	1
1	8162	1219	0
1	8172	1220	1
1	8175	1220	0
1	8192	1222	1
1	8192	1222	0
1	8201	1223	1
1	8209	1224	2
1	8214	1225	3
1	8218	1226	2
1	8224	1227	1
1	8229	1228	2
1	8232	1228	1
1	8242	1229	0
1	8247	1230	1
1	8249	1230	0
1	8254	1231	1
1	8256	1231	0
1	8261	1232	1
1	8266	1232	0
1	8321	1241	1
1	8321	1241	0
1	8330	1243	1
1	8330	1243	0
1	8331	1243	1
1	8341	1244	0
1	8356	1246	1
1	8356	1246	0
1	8387	1254	1
1	8387	1254	0
1	8405	1257	1
1	8405	1257	0
1	8425	1259	1
1	8425	1259	0
1	8449	1262	1
1	8449	1262	0
1	8491	1268	1
1	8491	1268	0
1	8508	1270	1
1	8508	1270	0
1	8534	1273	1
1	8534	1273	0
1	8583	1280	1
1	8583	1280	0
1	8584	1280	1
1	8585	1280	2
1	8599	1281	1
1	8632	1285	0
1	8633	1285	1
1	8645	1286	0
1	8654	1287	1
1	8661	1287	0
1	8670	1288	1
1	8673	1288	0
1	8692	1290	1
1	8692	1290	0
1	8709	1292	1
1	8709	1292	0
1	8710	1292	1
1	8721	1293	0
1	8761	1298	1
1	8761	1298	0
1	8792	1302	1
1	8792	1302	0
1	8803	1303	1
1	8807	1303	0
1	8824	1305	1
1	8824	1305	0
1	8825	1305	1
1	8837	1306	0
1	8899	1315	1
1	8899	1315	0
1	8917	1317	1
1	8917	1317	0
1	8924	1318	1
1	8931	1318	0
1	8938	1319	1
1	8939	1319	2
1	8943	1319	1
1	8953	1320	0
1	8988	1325	1
1	8988	1325	0
1	8995	1326	1