version 3
run Experimentos-137-20260514-09:21:01-4108
attr configname Experimentos
attr datetime 20260514-09:21:01
attr datetimef 20260514-092101
attr experiment Experimentos
attr inifile TwoQueues.ini
attr iterationvars "$p=0.6, $q=0.2, $Y=20, $m=4"
attr iterationvarsd p=0.6/q=0.2/Y=20/m=4
attr iterationvarsf p=0.6,q=0.2,Y=20,m=4-
attr measurement "$p=0.6, $q=0.2, $Y=20, $m=4"
attr network TwoQueues
attr processid 4108
attr repetition 17
attr replication #17
attr resultdir results
attr runnumber 137
attr seedset 137
itervar Y 20
itervar m 4
itervar p 0.6
itervar q 0.2
config description "Barrido completo de parámetros Proyecto 12"
config **.source1.p 0.6
config **.source1.q 0.2
config **.source2.p 0.6
config **.source2.q 0.2
config **.serverWithMaintenance.Y 20
config **.serverWithMaintenance.m 4
config network TwoQueues
config cpu-time-limit 5000s
config sim-time-limit 5000s
config warmup-period 400s
config repeat 20
config output-scalar-file results/Experimentos-p=0.6,q=0.2,Y=20,m=4--#17.sca
config output-vector-file results/Experimentos-p=0.6,q=0.2,Y=20,m=4--#17.vec
config **.vector-recording true

vector 0 TwoQueues.serverWithMaintenance residenceTime2:vector ETV
attr recordingmode vector
attr source delay2
attr title "Residence Time Class 2"
vector 1 TwoQueues.queue2 queueLengthStats:vector ETV
attr recordingmode vector
attr source qlen
attr title "Average Queue Length"
vector 2 TwoQueues.queue1 queueLengthStats:vector ETV
attr recordingmode vector
attr source qlen
attr title "Average Queue Length"
vector 3 TwoQueues.server residenceTime1:vector ETV
attr recordingmode vector
attr source delay1
attr title "Residence Time Class 1"
vector 4 TwoQueues.server throughputStats1:vector ETV
attr recordingmode vector
attr source throughput1
attr title "Throughput Class 1"
0	2587	404	1
0	2605	407	1
0	2618	411	1
0	2630	413	1
0	2658	416	1
0	2668	417	2
0	2679	418	3
0	2714	422	1
0	2749	429	1
0	2765	432	1
0	2776	435	1
0	2806	440	1
0	2817	441	1
0	2894	454	1
0	2922	457	1
0	2977	464	1
0	3039	473	1
0	3085	483	1
0	3112	486	1
0	3123	487	1
0	3165	494	1
0	3181	497	1
0	3204	500	1
0	3244	505	1
0	3344	522	1
0	3356	523	1
0	3368	524	1
0	3399	529	1
0	3413	530	1
0	3481	541	1
0	3507	544	1
0	3519	546	1
0	3567	553	1
0	3580	554	1
0	3605	557	1
0	3650	563	1
0	3667	565	1
0	3720	572	1
0	3729	573	2
0	3782	583	1
0	3872	596	1
0	3886	599	1
0	3913	602	1
0	3924	603	1
0	3957	607	1
0	3970	608	2
0	3988	610	1
0	3999	611	2
0	4115	627	1
0	4149	633	1
0	4160	635	1
0	4183	640	1
0	4200	642	1
0	4213	643	1
0	4225	644	1
0	4264	649	1
0	4313	655	1
0	4352	660	5
0	4363	661	2
0	4399	665	1
0	4422	668	1
0	4453	673	1
0	4493	678	1
0	4527	684	1
0	4559	689	1
0	4610	698	1
0	4617	699	1
0	4667	708	1
0	4727	719	1
0	4735	720	1
0	4742	721	2
0	4749	722	2
0	4758	723	2
0	4813	737	1
0	4854	745	1
0	4873	748	1
0	4897	753	1
0	4932	758	4
0	4938	759	3
0	4949	760	1
0	4966	762	1
0	5064	777	1
0	5153	789	1
0	5174	791	1
0	5191	793	1
0	5231	798	1
0	5242	799	1
0	5280	804	1
0	5299	806	1
0	5383	827	1
0	5432	836	1
0	5447	841	1
0	5512	856	1
0	5549	868	1
0	5559	869	2
0	5570	870	2
0	5581	871	2
0	5615	877	1
0	5659	884	1
0	5682	887	1
0	5717	893	1
0	5786	903	1
0	5810	906	1
0	5820	907	1
0	5829	909	1
0	5849	915	1
0	5881	919	1
0	5981	939	1
0	5992	940	1
0	5998	941	2
0	6030	946	1
0	6046	947	1
0	6086	952	1
0	6099	953	1
0	6118	955	1
0	6177	964	1
0	6188	965	1
0	6246	976	1
0	6277	980	1
0	6309	986	1
0	6335	994	1
0	6380	1000	1
0	6413	1005	1
0	6419	1006	2
0	6432	1010	1
0	6442	1011	1
0	6485	1018	1
0	6515	1023	1
0	6529	1025	1
0	6545	1029	1
0	6563	1031	1
0	6601	1036	1
0	6620	1039	1
0	6638	1043	1
0	6656	1046	1
0	6685	1050	1
0	6712	1053	1
0	6756	1058	3
0	6766	1059	3
0	6776	1060	4
0	6795	1062	1
0	6806	1063	1
0	6816	1064	1
0	6835	1067	1
0	6851	1069	1
0	6862	1070	1
0	6924	1078	1
0	6936	1079	2
0	6947	1080	2
0	6956	1081	3
0	6962	1082	3
0	6975	1085	1
0	6985	1086	1
0	6992	1087	1
0	7069	1102	1
0	7079	1103	1
0	7086	1104	1
0	7120	1109	5
0	7129	1110	5
0	7138	1112	1
0	7192	1119	1
0	7222	1124	1
0	7229	1125	1
0	7369	1147	1
0	7432	1155	1
0	7532	1169	1
0	7546	1170	1
0	7556	1171	2
0	7622	1184	1
0	7647	1188	1
0	7663	1192	1
0	7679	1195	1
0	7694	1200	1
0	7776	1211	1
0	7802	1214	1
0	7827	1217	1
0	7924	1234	1
0	7946	1239	4
0	7956	1240	4
0	7962	1241	2
0	8054	1256	1
0	8087	1263	1
0	8093	1264	2
0	8104	1265	1
0	8115	1266	1
0	8185	1279	1
0	8222	1285	1
0	8233	1286	2
0	8250	1288	1
0	8272	1291	1
0	8281	1293	1
0	8349	1307	1
0	8359	1308	1
0	8370	1310	1
0	8440	1320	1
0	8496	1329	1
0	8517	1331	1
0	8551	1336	4
0	8562	1337	1
0	8626	1347	1
0	8636	1348	2
0	8665	1352	1
0	8714	1360	1
0	8723	1361	2
0	8748	1366	1
0	8773	1371	1
0	8780	1372	1
0	8791	1373	1
0	8803	1374	2
0	8820	1376	1
0	8830	1377	1
0	8837	1378	1
0	8873	1385	1
0	8896	1387	1
0	8925	1391	1
0	8966	1397	1
0	8972	1398	2
0	9012	1404	1
0	9027	1406	1
0	9047	1409	1
0	9099	1417	1
0	9156	1425	1
0	9173	1427	1
0	9210	1432	1
0	9222	1433	2
0	9276	1442	1
0	9292	1445	1
0	9375	1459	1
0	9425	1468	1
0	9446	1471	1
0	9456	1472	1
0	9465	1474	1
0	9490	1478	1
0	9500	1479	1
0	9569	1490	1
0	9606	1497	1
0	9615	1499	1
0	9679	1513	1
0	9712	1522	1
0	9751	1530	1
0	9820	1541	1
0	9838	1543	1
0	9858	1545	1
0	9870	1546	1
0	9881	1547	1
0	9926	1553	1
0	9949	1556	1
0	9967	1558	1
0	10081	1580	1
0	10138	1592	1
0	10147	1593	2
0	10162	1596	1
0	10186	1599	1
0	10235	1610	1
0	10265	1615	1
0	10300	1621	1
0	10348	1629	1
0	10377	1634	1
0	10384	1635	1
0	10398	1637	1
0	10448	1645	1
0	10473	1648	1
0	10521	1657	1
0	10535	1658	1
0	10565	1663	1
0	10649	1674	1
0	10662	1675	1
0	10692	1679	1
0	10704	1680	1
0	10763	1688	1
0	10774	1689	1
0	10835	1699	1
0	10881	1706	1
0	10888	1707	1
0	10906	1710	1
0	10918	1711	1
0	10990	1728	1
0	11016	1733	3
0	11059	1742	1
0	11076	1744	1
0	11110	1750	1
0	11198	1764	1
0	11212	1766	1
0	11221	1768	1
0	11299	1780	1
0	11311	1781	1
0	11378	1790	1
0	11501	1808	1
0	11517	1811	1
0	11533	1814	1
0	11544	1816	1
0	11560	1819	1
0	11572	1820	1
0	11591	1823	1
0	11635	1830	1
0	11693	1844	1
0	11716	1848	1
0	11732	1853	4
0	11747	1856	1
0	11758	1857	1
0	11776	1860	1
0	11803	1865	1
0	11824	1869	1
0	11831	1870	1
0	11853	1875	1
0	11931	1890	1
0	11975	1898	1
0	11986	1899	2
0	12043	1907	1
0	12073	1910	1
0	12124	1919	1
0	12179	1929	1
0	12226	1935	1
0	12236	1936	2
0	12261	1940	1
0	12282	1948	1
0	12331	1956	1
0	12363	1961	4
0	12399	1966	1
0	12431	1971	1
0	12459	1974	1
0	12489	1980	1
0	12527	1990	1
0	12604	2005	1
0	12614	2006	1
0	12687	2021	1
0	12700	2022	1
0	12727	2025	1
0	12771	2032	1
0	12789	2036	1
0	12847	2052	1
0	12888	2057	1
0	12966	2072	1
0	13012	2080	1
0	13030	2084	1
0	13122	2105	1
0	13137	2110	1
0	13173	2115	3
0	13184	2116	1
0	13215	2121	1
0	13257	2127	1
0	13268	2130	1
0	13369	2144	1
0	13381	2145	2
0	13393	2146	2
0	13404	2147	1
0	13416	2148	1
0	13459	2153	1
0	13476	2155	1
0	13543	2163	1
0	13612	2173	1
0	13644	2177	1
0	13750	2192	1
0	13872	2209	1
0	13913	2213	1
0	13992	2224	1
0	14003	2225	2
0	14041	2230	3
0	14053	2231	1
0	14090	2236	1
0	14135	2242	1
0	14163	2248	1
0	14174	2249	1
0	14198	2252	1
0	14208	2253	1
0	14263	2261	1
0	14280	2263	1
0	14296	2266	1
0	14360	2276	1
0	14382	2279	1
0	14394	2280	1
0	14404	2281	2
0	14417	2284	1
0	14460	2297	1
0	14472	2298	1
0	14556	2320	1
0	14576	2322	1
0	14607	2327	5
0	14618	2328	4
0	14678	2339	1
0	14706	2344	1
0	14733	2347	1
0	14776	2354	1
0	14785	2355	2
0	14793	2356	1
0	14799	2357	2
0	14814	2361	1
0	14868	2369	1
0	14877	2371	1
0	14893	2374	1
0	14943	2382	1
0	14985	2389	1
0	15040	2400	1
0	15078	2405	1
0	15089	2406	1
0	15119	2410	1
0	15140	2412	1
0	15219	2424	1
0	15228	2426	1
0	15257	2429	1
0	15283	2432	1
0	15308	2435	1
0	15331	2438	1
0	15342	2439	1
0	15358	2441	1
0	15436	2454	1
0	15452	2457	1
0	15462	2458	1
0	15549	2474	1
0	15565	2476	1
0	15624	2484	1
0	15701	2497	1
0	15738	2502	1
0	15756	2504	1
0	15787	2512	1
0	15797	2513	2
0	15807	2514	3
0	15847	2519	1
0	15883	2528	1
0	15908	2532	1
0	15918	2533	1
0	15929	2536	1
0	15942	2540	1
0	15952	2541	1
0	15963	2543	1
0	16032	2556	1
0	16075	2564	1
0	16099	2567	1
0	16112	2568	1
0	16123	2569	1
0	16139	2571	1
0	16157	2575	1
0	16171	2577	1
0	16213	2583	1
0	16299	2595	1
0	16356	2607	1
0	16430	2620	1
0	16536	2635	1
0	16547	2636	1
0	16564	2638	1
0	16655	2650	1
0	16709	2658	1
0	16786	2670	1
0	16797	2671	1
0	16837	2677	1
0	16846	2679	1
0	16853	2680	1
0	16877	2683	1
0	16893	2685	1
0	16912	2691	1
0	16982	2702	1
0	16995	2703	1
0	17007	2704	1
0	17053	2710	1
0	17123	2725	1
0	17132	2727	1
0	17145	2730	1
0	17179	2735	3
0	17196	2737	1
0	17228	2742	1
0	17240	2744	1
0	17253	2745	2
0	17264	2746	1
0	17277	2747	1
0	17336	2756	1
0	17344	2757	1
0	17350	2758	2
0	17368	2762	1
0	17502	2787	1
0	17541	2795	1
0	17606	2811	1
0	17629	2815	1
0	17641	2816	2
0	17680	2821	1
0	17699	2823	1
0	17709	2824	2
0	17777	2839	1
0	17857	2856	1
0	17936	2872	1
0	17980	2880	1
0	17992	2883	1
0	18001	2884	2
0	18023	2889	1
0	18050	2895	1
0	18068	2897	1
0	18116	2904	1
0	18132	2906	1
0	18149	2908	1
0	18199	2914	1
0	18251	2921	1
0	18279	2924	1
0	18298	2926	1
0	18309	2927	1
0	18332	2930	1
0	18353	2933	1
0	18383	2939	1
0	18390	2940	1
0	18449	2952	1
0	18473	2955	1
0	18483	2956	1
0	18516	2965	1
0	18549	2969	1
0	18561	2970	1
0	18626	2981	1
0	18642	2983	1
0	18653	2986	1
0	18661	2987	1
0	18667	2988	2
0	18711	2994	1
0	18780	3007	1
0	18800	3010	1
0	18812	3011	2
0	18822	3012	2
0	18861	3017	1
0	18934	3027	1
0	18987	3035	1
0	19003	3036	1
0	19041	3041	5
0	19051	3042	4
0	19085	3048	1
0	19118	3053	1
0	19145	3059	1
0	19171	3063	1
0	19198	3068	1
0	19209	3071	1
0	19287	3084	1
0	19310	3089	1
0	19317	3090	1
0	19328	3093	1
0	19339	3095	1
0	19349	3096	1
0	19356	3097	1
0	19407	3105	1
0	19505	3124	1
0	19512	3125	1
0	19529	3128	1
0	19536	3129	2
0	19555	3134	6
0	19566	3135	4
0	19613	3144	1
0	19627	3147	1
0	19635	3148	1
0	19641	3149	2
0	19650	3151	1
0	19669	3157	1
0	19683	3160	1
0	19693	3161	1
0	19705	3162	1
0	19715	3163	1
0	19724	3164	2
0	19763	3173	1
0	19796	3177	1
0	19806	3178	2
0	19842	3182	1
0	19861	3184	1
0	19905	3190	1
0	19915	3191	1
0	19931	3196	3
0	19979	3205	1
0	19997	3207	1
0	20040	3213	1
0	20073	3222	1
0	20094	3226	1
0	20113	3228	1
0	20141	3231	1
0	20162	3233	1
0	20173	3234	1
0	20198	3237	1
0	20296	3251	1
0	20316	3255	1
0	20476	3281	1
0	20506	3285	1
0	20546	3290	1
0	20581	3296	1
0	20602	3299	1
0	20621	3303	1
0	20627	3304	2
0	20650	3309	1
0	20660	3310	1
0	20671	3313	1
0	20685	3316	1
0	20708	3319	1
0	20715	3320	1
0	20722	3321	1
0	20769	3332	1
0	20792	3336	1
0	20803	3339	1
0	20810	3340	1
0	20817	3341	1
0	20876	3350	1
0	20882	3351	2
0	20891	3353	1
0	20932	3361	1
0	20945	3362	1
0	20957	3363	2
0	20975	3365	1
0	21019	3371	1
0	21087	3382	1
0	21129	3387	1
0	21165	3392	1
0	21311	3415	1
0	21359	3421	1
0	21380	3423	1
0	21411	3427	1
0	21458	3433	1
0	21510	3442	1
0	21530	3446	1
0	21547	3448	1
0	21572	3451	1
0	21615	3460	1
0	21722	3478	1
0	21732	3479	1
0	21754	3484	1
0	21770	3487	1
0	21824	3498	1
0	21835	3499	1
0	21845	3500	2
0	21899	3507	1
0	21975	3518	1
0	21996	3520	1
0	22006	3521	2
0	22020	3524	1
0	22042	3528	1
0	22129	3539	1
0	22169	3544	1
0	22180	3545	1
0	22210	3549	1
0	22260	3557	1
0	22280	3559	1
0	22290	3560	2
0	22355	3568	1
0	22433	3579	1
0	22445	3580	1
0	22483	3585	1
0	22490	3586	2
0	22496	3587	2
0	22507	3590	1
0	22536	3595	4
0	22546	3596	2
0	22555	3597	2
0	22590	3601	1
0	22619	3605	1
0	22671	3612	1
0	22765	3629	1
0	22798	3633	1
0	22823	3636	1
0	22841	3638	1
0	22864	3643	1
0	22873	3645	1
0	22883	3647	1
0	22889	3648	2
0	22898	3650	1
0	22935	3655	1
0	22955	3660	1
0	22965	3661	1
0	22974	3663	1
0	22987	3667	1
0	23015	3672	4
0	23021	3673	2
0	23028	3674	3
0	23037	3675	2
0	23066	3681	1
0	23125	3689	1
0	23135	3690	2
0	23193	3698	1
0	23219	3701	1
0	23250	3707	1
0	23277	3711	1
0	23286	3712	2
0	23327	3718	1
0	23340	3719	1
0	23473	3738	1
0	23521	3745	1
0	23533	3747	1
0	23546	3750	1
0	23597	3757	1
0	23607	3758	2
0	23647	3763	3
0	23657	3764	3
0	23726	3777	1
0	23748	3782	1
0	23761	3783	1
0	23784	3786	1
0	23796	3788	1
0	23936	3807	1
0	23988	3814	1
0	24026	3819	1
0	24064	3826	1
0	24100	3834	1
0	24118	3838	1
0	24142	3846	1
0	24159	3848	1
0	24196	3853	1
0	24209	3855	1
0	24285	3867	1
0	24291	3868	2
0	24374	3887	1
0	24497	3904	1
0	24517	3907	1
0	24544	3914	1
0	24558	3916	1
0	24584	3922	1
0	24596	3923	1
0	24606	3924	2
0	24636	3929	1
0	24666	3933	1
0	24700	3937	1
0	24733	3941	1
0	24745	3942	1
0	24769	3945	1
0	24836	3953	1
0	24904	3963	1
0	24930	3966	1
0	24993	3981	1
0	25009	3983	1
0	25021	3985	1
0	25063	3991	1
0	25102	3996	5
0	25111	3997	5
0	25120	3999	1
0	25171	4007	1
0	25188	4010	1
0	25197	4011	2
0	25208	4013	1
0	25215	4014	1
0	25264	4021	1
0	25288	4024	1
0	25313	4029	1
0	25352	4034	1
0	25369	4036	1
0	25383	4038	1
0	25410	4043	1
0	25432	4045	1
0	25443	4046	2
0	25475	4050	1
0	25486	4051	1
0	25537	4060	1
0	25584	4067	1
0	25661	4078	1
0	25681	4080	1
0	25699	4082	1
0	25729	4086	1
0	25790	4094	1
0	25818	4099	1
0	25853	4106	1
0	25907	4113	1
0	25953	4120	1
0	25985	4125	1
0	26017	4129	1
0	26037	4131	1
0	26056	4133	1
0	26068	4134	2
0	26078	4135	2
0	26088	4136	3
0	26107	4138	1
0	26133	4141	1
0	26166	4145	1
0	26216	4156	1
0	26245	4163	1
0	26252	4164	1
0	26269	4166	1
0	26296	4171	1
0	26306	4172	1
0	26327	4175	1
0	26424	4195	1
0	26438	4197	1
0	26448	4198	1
0	26462	4200	1
0	26482	4204	1
0	26495	4205	1
0	26519	4208	1
0	26564	4215	1
0	26571	4216	1
0	26625	4225	1
0	26643	4227	1
0	26701	4235	1
0	26729	4239	1
0	26753	4244	1
0	26769	4247	1
0	26784	4250	1
0	26850	4260	1
0	26931	4276	1
0	26964	4281	1
0	26978	4284	1
0	26987	4286	1
0	26999	4287	1
0	27018	4289	1
0	27049	4293	1
0	27097	4301	1
0	27115	4304	1
0	27126	4305	1
0	27132	4306	2
0	27143	4309	1
0	27233	4324	1
0	27264	4331	1
0	27274	4332	1
0	27294	4336	1
0	27326	4341	3
0	27337	4342	1
0	27360	4346	1
0	27380	4348	1
0	27392	4349	2
0	27404	4350	1
0	27414	4351	2
0	27425	4352	2
0	27436	4353	1
0	27460	4356	1
0	27470	4357	1
0	27483	4361	1
0	27579	4374	1
0	27627	4381	1
0	27673	4391	1
0	27680	4392	1
0	27705	4397	1
0	27717	4399	1
0	27728	4400	1
0	27805	4411	1
0	27836	4416	3
0	27904	4430	1
0	27951	4437	1
0	27958	4438	1
0	27967	4440	1
0	27979	4441	1
0	27991	4442	1
0	28008	4444	1
0	28047	4449	1
0	28061	4452	1
0	28091	4457	1
0	28132	4465	1
0	28159	4469	1
0	28169	4470	2
0	28188	4473	1
0	28198	4474	1
0	28265	4485	1
0	28291	4491	1
0	28310	4494	1
0	28319	4496	1
0	28359	4501	3
0	28386	4504	1
0	28411	4507	1
0	28487	4518	1
0	28629	4547	1
0	28641	4549	1
0	28661	4554	1
0	28702	4564	1
0	28711	4565	2
0	28752	4572	1
0	28797	4580	1
0	28845	4588	1
0	28851	4589	2
0	28864	4592	1
0	28876	4594	1
0	28883	4595	1
0	28916	4603	1
0	28928	4604	1
0	28940	4605	1
0	28954	4608	1
0	28976	4613	1
0	28982	4614	2
0	29055	4628	1
0	29157	4644	1
0	29193	4650	1
0	29206	4651	1
0	29246	4656	1
0	29259	4657	1
0	29283	4660	1
0	29362	4673	1
0	29379	4675	1
0	29490	4692	1
0	29502	4693	2
0	29562	4704	1
0	29578	4706	1
0	29597	4709	1
0	29607	4710	1
0	29653	4717	1
0	29681	4721	1
0	29688	4722	1
0	29724	4727	5
0	29745	4729	1
0	29755	4730	2
0	29855	4744	1
0	29902	4750	1
0	29939	4756	1
0	29984	4762	1
0	29995	4763	2
0	30019	4766	1
0	30043	4769	1
0	30061	4773	1
0	30115	4785	1
0	30126	4786	1
0	30137	4787	1
0	30168	4793	1
0	30226	4803	1
0	30244	4805	1
0	30349	4820	1
0	30412	4831	1
0	30446	4837	1
0	30479	4842	3
0	30489	4843	3
0	30510	4846	1
0	30545	4851	1
0	30559	4852	1
0	30624	4863	1
0	30653	4869	1
0	30677	4872	1
0	30696	4874	1
0	30818	4893	1
0	30856	4898	1
0	30949	4911	1
0	30968	4913	1
0	30993	4916	1
0	31034	4924	1
0	31054	4929	1
0	31117	4939	1
0	31128	4940	1
0	31158	4944	1
0	31175	4946	1
0	31209	4951	1
0	31225	4955	1
0	31321	4968	1
0	31337	4970	1
0	31346	4972	1
0	31366	4976	1
0	31388	4983	1
0	31427	4990	1
0	31455	4994	1
1	2580	403	1
1	2580	403	0
1	2601	406	1
1	2601	406	0
1	2614	410	1
1	2614	410	0
1	2623	412	1
1	2623	412	0
1	2649	415	1
1	2649	415	0
1	2650	415	1
1	2651	415	2
1	2661	416	1
1	2672	417	0
1	2707	421	1
1	2707	421	0
1	2745	428	1
1	2745	428	0
1	2761	431	1
1	2761	431	0
1	2772	434	1
1	2772	434	0
1	2800	439	1
1	2800	439	0
1	2807	440	1
1	2811	440	0
1	2886	453	1
1	2886	453	0
1	2913	456	1
1	2913	456	0
1	2969	463	1
1	2969	463	0
1	3031	472	1
1	3031	472	0
1	3078	482	1
1	3078	482	0
1	3103	485	1
1	3103	485	0
1	3114	486	1
1	3116	486	0
1	3161	493	1
1	3161	493	0
1	3175	496	1
1	3175	496	0
1	3196	499	1
1	3196	499	0
1	3237	504	1
1	3237	504	0
1	3335	521	1
1	3335	521	0
1	3346	522	1
1	3349	522	0
1	3358	523	1
1	3361	523	0
1	3391	528	1
1	3391	528	0
1	3401	529	1
1	3406	529	0
1	3475	540	1
1	3475	540	0
1	3500	543	1
1	3500	543	0
1	3515	545	1
1	3515	545	0
1	3560	552	1
1	3560	552	0
1	3569	553	1
1	3573	553	0
1	3598	556	1
1	3598	556	0
1	3643	562	1
1	3643	562	0
1	3660	564	1
1	3660	564	0
1	3712	571	1
1	3712	571	0
1	3713	571	1
1	3723	572	0
1	3775	582	1
1	3775	582	0
1	3865	595	1
1	3865	595	0
1	3882	598	1
1	3882	598	0
1	3905	601	1
1	3905	601	0
1	3915	602	1
1	3917	602	0
1	3949	606	1
1	3949	606	0
1	3950	606	1
1	3963	607	0
1	3980	609	1
1	3980	609	0
1	3981	609	1
1	3992	610	0
1	4108	626	1
1	4108	626	0
1	4145	632	1
1	4145	632	0
1	4154	634	1
1	4154	634	0
1	4177	639	1
1	4177	639	0
1	4192	641	1
1	4192	641	0
1	4202	642	1
1	4206	642	0
1	4215	643	1
1	4218	643	0
1	4257	648	1
1	4257	648	0
1	4306	654	1
1	4306	654	0
1	4315	655	1
1	4344	659	0
1	4345	659	1
1	4356	660	0
1	4391	664	1
1	4391	664	0
1	4415	667	1
1	4415	667	0
1	4445	672	1
1	4445	672	0
1	4484	677	1
1	4484	677	0
1	4523	683	1
1	4523	683	0
1	4551	688	1
1	4551	688	0
1	4606	697	1
1	4606	697	0
1	4611	698	1
1	4613	698	0
1	4659	707	1
1	4659	707	0
1	4723	718	1
1	4723	718	0
1	4728	719	1
1	4729	719	2
1	4731	719	1
1	4736	720	2
1	4738	720	1
1	4743	721	2
1	4745	721	1
1	4752	722	0
1	4809	736	1
1	4809	736	0
1	4848	744	1
1	4848	744	0
1	4866	747	1
1	4866	747	0
1	4891	752	1
1	4891	752	0
1	4904	754	1
1	4917	756	2
1	4926	757	1
1	4934	758	0
1	4939	759	1
1	4943	759	0
1	4959	761	1
1	4959	761	0
1	5057	776	1
1	5057	776	0
1	5146	788	1
1	5146	788	0
1	5166	790	1
1	5166	790	0
1	5184	792	1
1	5184	792	0
1	5222	797	1
1	5222	797	0
1	5233	798	1
1	5235	798	0
1	5273	803	1
1	5273	803	0
1	5291	805	1
1	5291	805	0
1	5376	826	1
1	5376	826	0
1	5428	835	1
1	5428	835	0
1	5443	840	1
1	5443	840	0
1	5508	855	1
1	5508	855	0
1	5542	867	1
1	5542	867	0
1	5543	867	1
1	5551	868	2
1	5553	868	1
1	5560	869	2
1	5564	869	1
1	5575	870	0
1	5609	876	1
1	5609	876	0
1	5655	883	1
1	5655	883	0
1	5675	886	1
1	5675	886	0
1	5713	892	1
1	5713	892	0
1	5778	902	1
1	5778	902	0
1	5803	905	1
1	5803	905	0
1	5812	906	1
1	5814	906	0
1	5825	908	1
1	5825	908	0
1	5842	914	1
1	5842	914	0
1	5873	918	1
1	5873	918	0
1	5975	938	1
1	5975	938	0
1	5983	939	1
1	5984	939	2
1	5986	939	1
1	5994	940	0
1	6022	945	1
1	6022	945	0
1	6032	946	1
1	6039	946	0
1	6079	951	1
1	6079	951	0
1	6088	952	1
1	6092	952	0
1	6110	954	1
1	6110	954	0
1	6170	963	1
1	6170	963	0
1	6179	964	1
1	6181	964	0
1	6239	975	1
1	6239	975	0
1	6271	979	1
1	6271	979	0
1	6305	985	1
1	6305	985	0
1	6331	993	1
1	6331	993	0
1	6373	999	1
1	6373	999	0
1	6408	1004	1
1	6408	1004	0
1	6409	1004	1
1	6415	1005	0
1	6428	1009	1
1	6428	1009	0
1	6433	1010	1
1	6436	1010	0
1	6477	1017	1
1	6477	1017	0
1	6508	1022	1
1	6508	1022	0
1	6523	1024	1
1	6523	1024	0
1	6541	1028	1
1	6541	1028	0
1	6553	1030	1
1	6553	1030	0
1	6594	1035	1
1	6594	1035	0
1	6614	1038	1
1	6614	1038	0
1	6634	1042	1
1	6634	1042	0
1	6648	1045	1
1	6648	1045	0
1	6678	1049	1
1	6678	1049	0
1	6704	1052	1
1	6704	1052	0
1	6728	1055	1
1	6740	1056	2
1	6741	1056	3
1	6749	1057	2
1	6759	1058	1
1	6769	1059	0
1	6786	1061	1
1	6786	1061	0
1	6797	1062	1
1	6799	1062	0
1	6808	1063	1
1	6810	1063	0
1	6828	1066	1
1	6828	1066	0
1	6845	1068	1
1	6845	1068	0
1	6852	1069	1
1	6856	1069	0
1	6916	1077	1
1	6916	1077	0
1	6917	1077	1
1	6926	1078	2
1	6927	1078	3
1	6929	1078	2
1	6938	1079	3
1	6940	1079	2
1	6950	1080	1
1	6958	1081	0
1	6969	1084	1
1	6969	1084	0
1	6977	1085	1
1	6979	1085	0
1	6986	1086	1
1	6988	1086	0
1	7062	1101	1
1	7062	1101	0
1	7071	1102	1
1	7073	1102	0
1	7080	1103	1
1	7082	1103	0
1	7087	1104	1
1	7091	1105	2
1	7113	1108	1
1	7123	1109	0
1	7134	1111	1
1	7134	1111	0
1	7185	1118	1
1	7185	1118	0
1	7218	1123	1
1	7218	1123	0
1	7223	1124	1
1	7225	1124	0
1	7362	1146	1
1	7362	1146	0
1	7422	1154	1
1	7422	1154	0
1	7525	1168	1
1	7525	1168	0
1	7534	1169	1
1	7535	1169	2
1	7539	1169	1
1	7549	1170	0
1	7618	1183	1
1	7618	1183	0
1	7640	1187	1
1	7640	1187	0
1	7659	1191	1
1	7659	1191	0
1	7673	1194	1
1	7673	1194	0
1	7690	1199	1
1	7690	1199	0
1	7768	1210	1
1	7768	1210	0
1	7793	1213	1
1	7793	1213	0
1	7819	1216	1
1	7819	1216	0
1	7918	1233	1
1	7918	1233	0
1	7931	1235	1
1	7934	1236	2
1	7940	1238	1
1	7948	1239	2
1	7950	1239	1
1	7958	1240	0
1	8048	1255	1
1	8048	1255	0
1	8082	1262	1
1	8082	1262	0
1	8083	1262	1
1	8089	1263	0
1	8094	1264	1
1	8098	1264	0
1	8105	1265	1
1	8109	1265	0
1	8178	1278	1
1	8178	1278	0
1	8213	1284	1
1	8213	1284	0
1	8214	1284	1
1	8226	1285	0
1	8243	1287	1
1	8243	1287	0
1	8266	1290	1
1	8266	1290	0
1	8277	1292	1
1	8277	1292	0
1	8345	1306	1
1	8345	1306	0
1	8350	1307	1
1	8353	1307	0
1	8366	1309	1
1	8366	1309	0
1	8432	1319	1
1	8432	1319	0
1	8488	1328	1
1	8488	1328	0
1	8508	1330	1
1	8508	1330	0
1	8526	1332	1
1	8544	1335	0
1	8553	1336	1
1	8555	1336	0
1	8618	1346	1
1	8618	1346	0
1	8619	1346	1
1	8629	1347	0
1	8659	1351	1
1	8659	1351	0
1	8705	1359	1
1	8705	1359	0
1	8706	1359	1
1	8717	1360	0
1	8744	1365	1
1	8744	1365	0
1	8769	1370	1
1	8769	1370	0
1	8774	1371	1
1	8776	1371	0
1	8781	1372	1
1	8782	1372	2
1	8785	1372	1
1	8797	1373	0
1	8812	1375	1
1	8812	1375	0
1	8822	1376	1
1	8824	1376	0
1	8831	1377	1
1	8833	1377	0
1	8867	1384	1
1	8867	1384	0
1	8887	1386	1
1	8887	1386	0
1	8918	1390	1
1	8918	1390	0
1	8959	1396	1
1	8959	1396	0
1	8960	1396	1
1	8968	1397	0
1	9005	1403	1
1	9005	1403	0
1	9020	1405	1
1	9020	1405	0
1	9041	1408	1
1	9041	1408	0
1	9085	1416	1
1	9085	1416	0
1	9149	1424	1
1	9149	1424	0
1	9166	1426	1
1	9166	1426	0
1	9201	1431	1
1	9201	1431	0
1	9202	1431	1
1	9215	1432	0
1	9272	1441	1
1	9272	1441	0
1	9288	1444	1
1	9288	1444	0
1	9369	1458	1
1	9369	1458	0
1	9419	1467	1
1	9419	1467	0
1	9440	1470	1
1	9440	1470	0
1	9448	1471	1
1	9450	1471	0
1	9461	1473	1
1	9461	1473	0
1	9484	1477	1
1	9484	1477	0
1	9492	1478	1
1	9494	1478	0
1	9563	1489	1
1	9563	1489	0
1	9602	1496	1
1	9602	1496	0
1	9611	1498	1
1	9611	1498	0
1	9675	1512	1
1	9675	1512	0
1	9708	1521	1
1	9708	1521	0
1	9744	1529	1
1	9744	1529	0
1	9810	1540	1
1	9810	1540	0
1	9831	1542	1
1	9831	1542	0
1	9850	1544	1
1	9850	1544	0
1	9860	1545	1
1	9863	1545	0
1	9872	1546	1
1	9874	1546	0
1	9919	1552	1
1	9919	1552	0
1	9940	1555	1
1	9940	1555	0
1	9959	1557	1
1	9959	1557	0
1	10074	1579	1
1	10074	1579	0
1	10133	1591	1
1	10133	1591	0
1	10134	1591	1
1	10141	1592	0
1	10156	1595	1
1	10156	1595	0
1	10180	1598	1
1	10180	1598	0
1	10228	1609	1
1	10228	1609	0
1	10259	1614	1
1	10259	1614	0
1	10296	1620	1
1	10296	1620	0
1	10341	1628	1
1	10341	1628	0
1	10373	1633	1
1	10373	1633	0
1	10378	1634	1
1	10380	1634	0
1	10392	1636	1
1	10392	1636	0
1	10441	1644	1
1	10441	1644	0
1	10465	1647	1
1	10465	1647	0
1	10514	1656	1
1	10514	1656	0
1	10523	1657	1
1	10528	1657	0
1	10561	1662	1
1	10561	1662	0
1	10640	1673	1
1	10640	1673	0
1	10651	1674	1
1	10655	1674	0
1	10684	1678	1
1	10684	1678	0
1	10694	1679	1
1	10697	1679	0
1	10756	1687	1
1	10756	1687	0
1	10765	1688	1
1	10767	1688	0
1	10826	1698	1
1	10826	1698	0
1	10875	1705	1
1	10875	1705	0
1	10882	1706	1
1	10884	1706	0
1	10899	1709	1
1	10899	1709	0
1	10908	1710	1
1	10911	1710	0
1	10986	1727	1
1	10986	1727	0
1	11000	1730	1
1	11012	1732	0
1	11050	1741	1
1	11050	1741	0
1	11069	1743	1
1	11069	1743	0
1	11102	1749	1
1	11102	1749	0
1	11194	1763	1
1	11194	1763	0
1	11206	1765	1
1	11206	1765	0
1	11217	1767	1
1	11217	1767	0
1	11291	1779	1
1	11291	1779	0
1	11301	1780	1
1	11304	1780	0
1	11370	1789	1
1	11370	1789	0
1	11495	1807	1
1	11495	1807	0
1	11511	1810	1
1	11511	1810	0
1	11529	1813	1
1	11529	1813	0
1	11538	1815	1
1	11538	1815	0
1	11554	1818	1
1	11554	1818	0
1	11562	1819	1
1	11565	1819	0
1	11587	1822	1
1	11587	1822	0
1	11631	1829	1
1	11631	1829	0
1	11687	1843	1
1	11687	1843	0
1	11712	1847	1
1	11712	1847	0
1	11720	1849	1
1	11728	1852	0
1	11739	1855	1
1	11739	1855	0
1	11749	1856	1
1	11751	1856	0
1	11772	1859	1
1	11772	1859	0
1	11795	1864	1
1	11795	1864	0
1	11820	1868	1
1	11820	1868	0
1	11825	1869	1
1	11827	1869	0
1	11847	1874	1
1	11847	1874	0
1	11925	1889	1
1	11925	1889	0
1	11968	1897	1
1	11968	1897	0
1	11969	1897	1
1	11979	1898	0
1	12036	1906	1
1	12036	1906	0
1	12060	1909	1
1	12060	1909	0
1	12120	1918	1
1	12120	1918	0
1	12170	1928	1
1	12170	1928	0
1	12218	1934	1
1	12218	1934	0
1	12219	1934	1
1	12229	1935	0
1	12255	1939	1
1	12255	1939	0
1	12278	1947	1
1	12278	1947	0
1	12324	1955	1
1	12324	1955	0
1	12341	1957	1
1	12355	1960	0
1	12393	1965	1
1	12393	1965	0
1	12424	1970	1
1	12424	1970	0
1	12451	1973	1
1	12451	1973	0
1	12483	1979	1
1	12483	1979	0
1	12523	1989	1
1	12523	1989	0
1	12596	2004	1
1	12596	2004	0
1	12606	2005	1
1	12608	2005	0
1	12680	2020	1
1	12680	2020	0
1	12689	2021	1
1	12693	2021	0
1	12720	2024	1
1	12720	2024	0
1	12767	2031	1
1	12767	2031	0
1	12783	2035	1
1	12783	2035	0
1	12838	2051	1
1	12838	2051	0
1	12880	2056	1
1	12880	2056	0
1	12960	2071	1
1	12960	2071	0
1	13006	2079	1
1	13006	2079	0
1	13026	2083	1
1	13026	2083	0
1	13118	2104	1
1	13118	2104	0
1	13133	2109	1
1	13133	2109	0
1	13148	2112	1
1	13165	2114	0
1	13175	2115	1
1	13177	2115	0
1	13211	2120	1
1	13211	2120	0
1	13251	2126	1
1	13251	2126	0
1	13264	2129	1
1	13264	2129	0
1	13361	2143	1
1	13361	2143	0
1	13362	2143	1
1	13371	2144	2
1	13374	2144	1
1	13386	2145	0
1	13395	2146	1
1	13397	2146	0
1	13406	2147	1
1	13409	2147	0
1	13451	2152	1
1	13451	2152	0
1	13469	2154	1
1	13469	2154	0
1	13531	2162	1
1	13531	2162	0
1	13605	2172	1
1	13605	2172	0
1	13636	2176	1
1	13636	2176	0
1	13743	2191	1
1	13743	2191	0
1	13864	2208	1
1	13864	2208	0
1	13906	2212	1
1	13906	2212	0
1	13984	2223	1
1	13984	2223	0
1	13985	2223	1
1	13996	2224	0
1	14020	2227	1
1	14034	2229	0
1	14043	2230	1
1	14046	2230	0
1	14083	2235	1
1	14083	2235	0
1	14128	2241	1
1	14128	2241	0
1	14156	2247	1
1	14156	2247	0
1	14165	2248	1
1	14167	2248	0
1	14192	2251	1
1	14192	2251	0
1	14199	2252	1
1	14202	2252	0
1	14255	2260	1
1	14255	2260	0
1	14274	2262	1
1	14274	2262	0
1	14290	2265	1
1	14290	2265	0
1	14351	2275	1
1	14351	2275	0
1	14376	2278	1
1	14376	2278	0
1	14383	2279	1
1	14384	2279	2
1	14388	2279	1
1	14398	2280	0
1	14413	2283	1
1	14413	2283	0
1	14454	2296	1
1	14454	2296	0
1	14462	2297	1
1	14465	2297	0
1	14549	2319	1
1	14549	2319	0
1	14567	2321	1
1	14567	2321	0
1	14578	2322	1
1	14590	2324	2
1	14600	2326	1
1	14611	2327	0
1	14672	2338	1
1	14672	2338	0
1	14698	2343	1
1	14698	2343	0
1	14726	2346	1
1	14726	2346	0
1	14769	2353	1
1	14769	2353	0
1	14770	2353	1
1	14779	2354	0
1	14786	2355	1
1	14787	2355	2
1	14789	2355	1
1	14795	2356	0
1	14808	2360	1
1	14808	2360	0
1	14862	2368	1
1	14862	2368	0
1	14873	2370	1
1	14873	2370	0
1	14887	2373	1
1	14887	2373	0
1	14935	2381	1
1	14935	2381	0
1	14979	2388	1
1	14979	2388	0
1	15036	2399	1
1	15036	2399	0
1	15071	2404	1
1	15071	2404	0
1	15080	2405	1
1	15082	2405	0
1	15109	2409	1
1	15109	2409	0
1	15129	2411	1
1	15129	2411	0
1	15213	2423	1
1	15213	2423	0
1	15224	2425	1
1	15224	2425	0
1	15245	2428	1
1	15245	2428	0
1	15275	2431	1
1	15275	2431	0
1	15300	2434	1
1	15300	2434	0
1	15324	2437	1
1	15324	2437	0
1	15333	2438	1
1	15335	2438	0
1	15352	2440	1
1	15352	2440	0
1	15429	2453	1
1	15429	2453	0
1	15446	2456	1
1	15446	2456	0
1	15454	2457	1
1	15456	2457	0
1	15545	2473	1
1	15545	2473	0
1	15557	2475	1
1	15557	2475	0
1	15618	2483	1
1	15618	2483	0
1	15692	2496	1
1	15692	2496	0
1	15731	2501	1
1	15731	2501	0
1	15749	2503	1
1	15749	2503	0
1	15779	2511	1
1	15779	2511	0
1	15780	2511	1
1	15781	2511	2
1	15791	2512	1
1	15801	2513	0
1	15840	2518	1
1	15840	2518	0
1	15879	2527	1
1	15879	2527	0
1	15901	2531	1
1	15901	2531	0
1	15910	2532	1
1	15912	2532	0
1	15925	2535	1
1	15925	2535	0
1	15938	2539	1
1	15938	2539	0
1	15943	2540	1
1	15946	2540	0
1	15959	2542	1
1	15959	2542	0
1	16024	2555	1
1	16024	2555	0
1	16068	2563	1
1	16068	2563	0
1	16091	2566	1
1	16091	2566	0
1	16101	2567	1
1	16105	2567	0
1	16114	2568	1
1	16116	2568	0
1	16133	2570	1
1	16133	2570	0
1	16151	2574	1
1	16151	2574	0
1	16165	2576	1
1	16165	2576	0
1	16203	2582	1
1	16203	2582	0
1	16291	2594	1
1	16291	2594	0
1	16350	2606	1
1	16350	2606	0
1	16423	2619	1
1	16423	2619	0
1	16529	2634	1
1	16529	2634	0
1	16538	2635	1
1	16540	2635	0
1	16558	2637	1
1	16558	2637	0
1	16644	2649	1
1	16644	2649	0
1	16703	2657	1
1	16703	2657	0
1	16777	2669	1
1	16777	2669	0
1	16788	2670	1
1	16790	2670	0
1	16831	2676	1
1	16831	2676	0
1	16842	2678	1
1	16842	2678	0
1	16847	2679	1
1	16849	2679	0
1	16868	2682	1
1	16868	2682	0
1	16887	2684	1
1	16887	2684	0
1	16906	2690	1
1	16906	2690	0
1	16975	2701	1
1	16975	2701	0
1	16984	2702	1
1	16988	2702	0
1	16997	2703	1
1	17000	2703	0
1	17046	2709	1
1	17046	2709	0
1	17119	2724	1
1	17119	2724	0
1	17128	2726	1
1	17128	2726	0
1	17139	2729	1
1	17139	2729	0
1	17158	2732	1
1	17170	2734	0
1	17189	2736	1
1	17189	2736	0
1	17222	2741	1
1	17222	2741	0
1	17233	2743	1
1	17233	2743	0
1	17234	2743	1
1	17246	2744	0
1	17255	2745	1
1	17257	2745	0
1	17266	2746	1
1	17270	2746	0
1	17330	2755	1
1	17330	2755	0
1	17337	2756	1
1	17338	2756	2
1	17340	2756	1
1	17346	2757	0
1	17364	2761	1
1	17364	2761	0
1	17495	2786	1
1	17495	2786	0
1	17535	2794	1
1	17535	2794	0
1	17600	2810	1
1	17600	2810	0
1	17619	2814	1
1	17619	2814	0
1	17620	2814	1
1	17634	2815	0
1	17672	2820	1
1	17672	2820	0
1	17691	2822	1
1	17691	2822	0
1	17692	2822	1
1	17702	2823	0
1	17771	2838	1
1	17771	2838	0
1	17853	2855	1
1	17853	2855	0
1	17929	2871	1
1	17929	2871	0
1	17974	2879	1
1	17974	2879	0
1	17987	2882	1
1	17987	2882	0
1	17988	2882	1
1	17995	2883	0
1	18019	2888	1
1	18019	2888	0
1	18046	2894	1
1	18046	2894	0
1	18061	2896	1
1	18061	2896	0
1	18109	2903	1
1	18109	2903	0
1	18126	2905	1
1	18126	2905	0
1	18141	2907	1
1	18141	2907	0
1	18190	2913	1
1	18190	2913	0
1	18244	2920	1
1	18244	2920	0
1	18272	2923	1
1	18272	2923	0
1	18290	2925	1
1	18290	2925	0
1	18300	2926	1
1	18302	2926	0
1	18325	2929	1
1	18325	2929	0
1	18347	2932	1
1	18347	2932	0
1	18379	2938	1
1	18379	2938	0
1	18384	2939	1
1	18386	2939	0
1	18441	2951	1
1	18441	2951	0
1	18465	2954	1
1	18465	2954	0
1	18475	2955	1
1	18477	2955	0
1	18512	2964	1
1	18512	2964	0
1	18541	2968	1
1	18541	2968	0
1	18551	2969	1
1	18554	2969	0
1	18619	2980	1
1	18619	2980	0
1	18636	2982	1
1	18636	2982	0
1	18649	2985	1
1	18649	2985	0
1	18654	2986	1
1	18655	2986	2
1	18657	2986	1
1	18663	2987	0
1	18703	2993	1
1	18703	2993	0
1	18776	3006	1
1	18776	3006	0
1	18790	3009	1
1	18790	3009	0
1	18791	3009	1
1	18802	3010	2
1	18805	3010	1
1	18815	3011	0
1	18852	3016	1
1	18852	3016	0