version 3
run Experimentos-901-20260514-09:21:42-7934
attr configname Experimentos
attr datetime 20260514-09:21:42
attr datetimef 20260514-092142
attr experiment Experimentos
attr inifile TwoQueues.ini
attr iterationvars "$p=0.7, $q=0.3, $Y=30, $m=3"
attr iterationvarsd p=0.7/q=0.3/Y=30/m=3
attr iterationvarsf p=0.7,q=0.3,Y=30,m=3-
attr measurement "$p=0.7, $q=0.3, $Y=30, $m=3"
attr network TwoQueues
attr processid 7934
attr repetition 1
attr replication #1
attr resultdir results
attr runnumber 901
attr seedset 901
itervar Y 30
itervar m 3
itervar p 0.7
itervar q 0.3
config description "Barrido completo de parámetros Proyecto 12"
config **.source1.p 0.7
config **.source1.q 0.2
config **.source2.p 0.6
config **.source2.q 0.3
config **.serverWithMaintenance.Y 30
config **.serverWithMaintenance.m 3
config network TwoQueues
config cpu-time-limit 5000s
config sim-time-limit 5000s
config warmup-period 400s
config repeat 20
config output-scalar-file results/Experimentos-p=0.7,q=0.3,Y=30,m=3--#1.sca
config output-vector-file results/Experimentos-p=0.7,q=0.3,Y=30,m=3--#1.vec
config **.vector-recording true

vector 0 TwoQueues.serverWithMaintenance residenceTime2:vector ETV
attr recordingmode vector
attr source delay2
attr title "Residence Time Class 2"
vector 1 TwoQueues.queue2 queueLengthStats:vector ETV
attr recordingmode vector
attr source qlen
attr title "Average Queue Length"
vector 2 TwoQueues.queue1 queueLengthStats:vector ETV
attr recordingmode vector
attr source qlen
attr title "Average Queue Length"
vector 3 TwoQueues.server residenceTime1:vector ETV
attr recordingmode vector
attr source delay1
attr title "Residence Time Class 1"
vector 4 TwoQueues.server throughputStats1:vector ETV
attr recordingmode vector
attr source throughput1
attr title "Throughput Class 1"
0	2362	401	1
0	2399	408	1
0	2410	409	2
0	2437	413	2
0	2463	417	1
0	2493	421	1
0	2504	423	1
0	2530	432	1
0	2586	444	1
0	2596	445	1
0	2607	446	1
0	2618	447	1
0	2646	450	1
0	2657	451	2
0	2667	452	2
0	2677	453	1
0	2703	463	1
0	2712	464	2
0	2776	474	1
0	2792	477	1
0	2804	479	1
0	2814	481	1
0	2822	482	2
0	2833	483	2
0	2843	484	3
0	2854	485	1
0	2866	486	1
0	2887	489	1
0	2897	490	2
0	2903	491	2
0	2926	496	1
0	2960	503	1
0	2978	506	1
0	3008	510	3
0	3014	511	4
0	3041	517	1
0	3052	520	1
0	3062	521	1
0	3079	526	1
0	3107	535	1
0	3136	542	1
0	3161	548	1
0	3208	558	1
0	3227	561	1
0	3236	562	2
0	3243	563	1
0	3252	565	1
0	3297	573	1
0	3346	582	1
0	3374	590	1
0	3386	592	1
0	3397	593	1
0	3409	594	2
0	3422	595	1
0	3430	596	2
0	3436	597	3
0	3450	601	1
0	3456	602	2
0	3467	605	1
0	3476	607	1
0	3487	610	1
0	3510	613	1
0	3528	618	1
0	3549	622	3
0	3568	625	1
0	3579	626	1
0	3587	627	2
0	3617	637	1
0	3635	641	1
0	3642	642	1
0	3651	644	1
0	3661	646	1
0	3671	647	2
0	3680	648	2
0	3688	649	2
0	3694	650	2
0	3700	651	3
0	3709	653	1
0	3718	655	1
0	3725	656	1
0	3741	659	1
0	3770	666	1
0	3780	668	1
0	3786	669	2
0	3795	671	1
0	3811	673	1
0	3848	679	1
0	3889	688	1
0	3896	689	1
0	3949	700	1
0	3955	701	2
0	3962	702	1
0	3971	704	1
0	3997	708	2
0	4003	709	3
0	4009	710	3
0	4029	715	1
0	4047	719	1
0	4060	723	1
0	4088	727	1
0	4118	732	1
0	4125	733	1
0	4184	745	1
0	4191	746	1
0	4198	747	1
0	4207	749	1
0	4265	761	1
0	4276	762	1
0	4287	763	1
0	4306	766	1
0	4321	768	1
0	4327	769	2
0	4343	772	1
0	4366	776	1
0	4381	780	1
0	4399	785	1
0	4410	787	1
0	4447	793	1
0	4459	795	1
0	4493	807	1
0	4500	808	1
0	4569	824	1
0	4575	825	2
0	4598	829	6
0	4623	833	1
0	4633	834	1
0	4646	836	1
0	4657	837	1
0	4689	842	1
0	4699	843	1
0	4708	844	1
0	4741	853	1
0	4751	855	1
0	4757	856	2
0	4780	859	1
0	4799	862	1
0	4810	865	1
0	4818	866	1
0	4824	867	2
0	4874	881	1
0	4884	882	1
0	4918	890	1
0	4928	891	2
0	4937	892	2
0	4982	901	1
0	4993	903	1
0	4999	904	2
0	5008	905	3
0	5022	907	1
0	5033	908	1
0	5080	915	1
0	5095	920	1
0	5120	926	1
0	5157	930	5
0	5168	931	5
0	5180	932	1
0	5191	933	2
0	5216	936	1
0	5234	938	1
0	5247	939	1
0	5273	942	1
0	5289	944	1
0	5307	948	1
0	5314	949	1
0	5330	953	1
0	5394	962	1
0	5407	963	1
0	5419	964	1
0	5429	965	2
0	5484	973	1
0	5494	974	1
0	5503	976	1
0	5543	985	1
0	5553	986	1
0	5577	992	1
0	5607	998	1
0	5617	1000	1
0	5623	1001	2
0	5634	1004	1
0	5652	1008	1
0	5665	1011	1
0	5720	1020	1
0	5730	1021	2
0	5763	1029	1
0	5773	1030	2
0	5779	1031	2
0	5787	1032	1
0	5797	1033	2
0	5811	1034	1
0	5822	1035	1
0	5862	1040	1
0	5872	1041	2
0	5897	1045	1
0	5904	1046	1
0	5912	1047	1
0	5922	1048	2
0	5933	1049	2
0	5952	1055	1
0	5961	1057	1
0	5987	1065	1
0	6010	1068	1
0	6022	1070	1
0	6029	1071	1
0	6038	1073	1
0	6062	1076	1
0	6071	1077	2
0	6126	1086	1
0	6160	1094	1
0	6170	1095	1
0	6197	1099	1
0	6217	1102	1
0	6227	1103	2
0	6238	1104	2
0	6267	1108	2
0	6276	1109	2
0	6283	1110	1
0	6310	1115	1
0	6325	1118	1
0	6331	1119	2
0	6362	1127	1
0	6388	1132	1
0	6394	1133	2
0	6408	1135	1
0	6449	1143	1
0	6489	1149	1
0	6508	1151	1
0	6524	1153	1
0	6552	1157	1
0	6647	1176	1
0	6657	1177	1
0	6676	1184	1
0	6686	1185	1
0	6702	1189	1
0	6711	1190	2
0	6722	1192	1
0	6732	1193	1
0	6747	1197	1
0	6768	1200	1
0	6786	1202	1
0	6796	1203	2
0	6806	1204	1
0	6839	1209	1
0	6850	1210	2
0	6880	1214	6
0	6889	1215	6
0	6901	1218	1
0	6907	1219	2
0	6923	1222	1
0	6938	1226	1
0	6950	1227	1
0	6962	1229	1
0	7006	1236	1
0	7048	1247	1
0	7055	1248	1
0	7102	1255	1
0	7118	1257	1
0	7141	1261	1
0	7151	1263	1
0	7157	1264	2
0	7168	1267	1
0	7230	1277	1
0	7256	1282	1
0	7278	1287	1
0	7291	1291	1
0	7310	1294	1
0	7320	1295	2
0	7326	1296	2
0	7346	1300	1
0	7402	1310	1
0	7444	1317	1
0	7454	1318	2
0	7466	1319	1
0	7490	1323	1
0	7509	1327	1
0	7516	1328	1
0	7536	1331	1
0	7545	1332	2
0	7553	1333	3
0	7563	1334	2
0	7576	1335	3
0	7587	1336	3
0	7599	1337	1
0	7714	1361	1
0	7726	1363	1
0	7737	1366	1
0	7746	1368	1
0	7753	1369	1
0	7763	1370	1
0	7783	1373	1
0	7807	1376	1
0	7826	1378	1
0	7843	1380	1
0	7862	1382	1
0	7905	1390	1
0	7930	1395	1
0	7948	1398	1
0	8002	1410	1
0	8014	1412	1
0	8027	1416	1
0	8043	1419	1
0	8091	1428	1
0	8100	1430	1
0	8111	1433	1
0	8130	1437	4
0	8153	1440	1
0	8167	1443	1
0	8211	1453	1
0	8222	1454	1
0	8239	1456	1
0	8245	1457	2
0	8252	1458	1
0	8259	1459	1
0	8288	1465	1
0	8300	1466	1
0	8310	1467	1
0	8330	1472	1
0	8340	1473	1
0	8357	1475	1
0	8363	1476	2
0	8370	1477	1
0	8381	1480	1
0	8408	1486	1
0	8431	1489	1
0	8437	1490	2
0	8446	1491	3
0	8464	1493	1
0	8494	1499	1
0	8507	1503	1
0	8520	1506	1
0	8537	1509	1
0	8546	1510	2
0	8557	1513	1
0	8564	1514	1
0	8599	1518	3
0	8608	1519	4
0	8614	1520	5
0	8623	1521	6
0	8633	1522	5
0	8639	1523	2
0	8645	1524	3
0	8661	1528	1
0	8672	1529	1
0	8718	1536	1
0	8729	1537	1
0	8741	1538	1
0	8750	1539	2
0	8761	1542	1
0	8773	1544	1
0	8852	1556	1
0	8887	1561	1
0	8900	1562	2
0	8910	1563	2
0	8916	1564	3
0	8925	1565	3
0	8947	1570	1
0	8954	1571	1
0	8964	1572	1
0	8977	1573	1
0	8985	1574	2
0	8992	1575	1
0	9014	1581	1
0	9032	1585	1
0	9052	1589	1
0	9072	1593	4
0	9081	1594	2
0	9094	1596	1
0	9120	1601	1
0	9141	1604	1
0	9148	1605	1
0	9182	1613	1
0	9195	1614	2
0	9204	1615	2
0	9214	1616	3
0	9240	1621	1
0	9274	1628	1
0	9288	1630	1
0	9301	1634	1
0	9309	1635	1
0	9318	1636	2
0	9401	1653	1
0	9411	1654	1
0	9425	1656	1
0	9442	1662	1
0	9453	1665	1
0	9520	1677	1
0	9560	1682	1
0	9569	1683	2
0	9578	1685	1
0	9587	1687	1
0	9601	1689	1
0	9652	1702	1
0	9662	1703	1
0	9715	1712	1
0	9745	1716	5
0	9757	1717	4
0	9767	1718	3
0	9808	1727	1
0	9826	1731	1
0	9833	1732	1
0	9841	1733	1
0	9850	1734	2
0	9916	1751	1
0	9923	1752	1
0	9968	1761	1
0	10000	1767	1
0	10021	1771	1
0	10035	1774	1
0	10051	1776	1
0	10092	1785	1
0	10103	1786	1
0	10113	1787	1
0	10135	1791	1
0	10161	1796	1
0	10171	1797	1
0	10182	1799	1
0	10192	1800	1
0	10205	1801	1
0	10216	1802	1
0	10225	1803	1
0	10258	1810	1
0	10275	1812	1
0	10296	1815	1
0	10302	1816	2
0	10333	1820	6
0	10356	1823	1
0	10370	1826	1
0	10379	1827	2
0	10395	1830	1
0	10406	1833	1
0	10417	1835	1
0	10434	1837	1
0	10452	1841	1
0	10489	1847	1
0	10502	1851	1
0	10512	1852	1
0	10521	1853	1
0	10570	1862	1
0	10579	1863	2
0	10592	1865	1
0	10629	1871	1
0	10643	1874	1
0	10656	1878	1
0	10674	1881	1
0	10693	1883	1
0	10709	1887	1
0	10716	1888	1
0	10740	1896	1
0	10751	1897	2
0	10769	1902	1
0	10792	1907	1
0	10813	1911	1
0	10819	1912	2
0	10839	1916	1
0	10866	1920	3
0	10877	1921	4
0	10889	1922	4
0	10899	1923	4
0	10927	1928	1
0	10938	1929	1
0	10962	1932	1
0	11033	1945	1
0	11048	1948	1
0	11058	1949	2
0	11069	1950	2
0	11096	1954	1
0	11126	1958	1
0	11137	1959	1
0	11148	1960	1
0	11211	1970	1
0	11262	1978	1
0	11311	1990	1
0	11321	1991	1
0	11336	1995	1
0	11353	2001	1
0	11371	2005	1
0	11395	2012	1
0	11408	2016	1
0	11470	2032	1
0	11477	2033	1
0	11484	2034	1
0	11494	2036	1
0	11503	2037	2
0	11513	2038	1
0	11527	2042	5
0	11533	2043	3
0	11569	2051	1
0	11608	2058	1
0	11624	2061	1
0	11634	2062	1
0	11646	2064	1
0	11652	2065	2
0	11759	2087	1
0	11768	2088	2
0	11795	2094	1
0	11808	2097	1
0	11823	2099	1
0	11863	2106	1
0	11873	2107	2
0	11889	2109	1
0	11906	2111	1
0	11922	2113	1
0	11933	2114	2
0	11944	2115	1
0	11958	2118	1
0	11968	2120	1
0	11975	2121	2
0	11981	2122	2
0	12005	2127	1
0	12041	2132	1
0	12067	2140	1
0	12082	2142	1
0	12088	2143	2
0	12099	2145	1
0	12144	2158	1
0	12175	2165	1
0	12187	2167	1
0	12207	2172	1
0	12233	2175	1
0	12244	2176	2
0	12254	2177	2
0	12273	2179	1
0	12283	2180	1
0	12322	2192	1
0	12350	2197	1
0	12362	2198	1
0	12373	2199	1
0	12385	2200	1
0	12397	2201	1
0	12407	2202	1
0	12426	2209	1
0	12448	2215	1
0	12522	2225	1
0	12535	2226	2
0	12546	2227	1
0	12598	2235	1
0	12614	2238	1
0	12628	2240	1
0	12658	2244	1
0	12677	2247	1
0	12689	2249	1
0	12703	2250	2
0	12714	2251	2
0	12724	2252	3
0	12756	2256	2
0	12772	2259	1
0	12779	2260	1
0	12830	2271	1
0	12863	2277	1
0	12879	2280	1
0	12928	2292	1
0	12963	2297	1
0	12973	2298	1
0	13000	2303	1
0	13007	2304	1
0	13014	2305	1
0	13044	2310	1
0	13081	2315	1
0	13102	2318	1
0	13164	2329	1
0	13222	2338	1
0	13234	2339	1
0	13247	2340	1
0	13290	2349	1
0	13299	2350	2
0	13328	2357	1
0	13353	2362	1
0	13371	2364	1
0	13381	2365	2
0	13387	2366	3
0	13394	2367	3
0	13400	2368	2
0	13410	2370	1
0	13416	2371	2
0	13443	2375	4
0	13453	2376	2
0	13462	2377	2
0	13471	2378	1
0	13478	2379	1
0	13505	2384	1
0	13521	2387	1
0	13560	2393	1
0	13571	2394	2
0	13582	2395	1
0	13615	2401	1
0	13624	2402	2
0	13644	2407	1
0	13658	2408	1
0	13668	2409	2
0	13678	2410	3
0	13697	2412	1
0	13707	2413	2
0	13713	2414	2
0	13733	2419	1
0	13742	2421	1
0	13768	2428	1
0	13778	2429	1
0	13796	2432	1
0	13806	2433	1
0	13829	2437	1
0	13862	2445	1
0	13875	2446	2
0	13887	2447	3
0	13898	2448	3
0	13931	2452	5
0	13942	2453	1
0	13961	2455	1
0	14043	2466	1
0	14106	2475	1
0	14130	2479	1
0	14136	2480	2
0	14148	2481	1
0	14164	2483	1
0	14176	2485	1
0	14184	2486	1
0	14194	2487	2
0	14202	2488	2
0	14212	2489	1
0	14225	2492	1
0	14235	2493	1
0	14251	2495	1
0	14259	2496	1
0	14268	2497	2
0	14306	2505	1
0	14317	2507	1
0	14326	2508	2
0	14334	2509	3
0	14345	2510	1
0	14359	2511	2
0	14397	2518	1
0	14422	2523	1
0	14430	2524	1
0	14436	2525	2
0	14454	2529	1
0	14481	2533	4
0	14490	2534	2
0	14499	2535	1
0	14505	2536	2
0	14511	2537	3
0	14533	2543	1
0	14543	2544	1
0	14552	2545	1
0	14566	2547	1
0	14575	2549	1
0	14585	2550	1
0	14594	2551	1
0	14612	2555	1
0	14629	2561	1
0	14682	2575	1
0	14690	2576	1
0	14699	2577	2
0	14708	2578	1
0	14722	2580	1
0	14759	2587	1
0	14789	2591	1
0	14807	2593	1
0	14831	2596	1
0	14849	2598	1
0	14856	2599	2
0	14862	2600	2
0	14869	2601	1
0	14892	2607	1
0	14899	2608	2
0	14909	2609	2
0	14931	2613	5
0	14940	2614	4
0	14949	2615	3
0	14955	2616	2
0	14969	2619	1
0	14980	2620	1
0	15028	2627	1
0	15039	2628	2
0	15063	2631	1
0	15072	2632	2
0	15088	2635	1
0	15119	2643	1
0	15131	2645	1
0	15140	2646	2
0	15151	2648	1
0	15163	2650	1
0	15184	2655	1
0	15191	2656	2
0	15197	2657	2
0	15214	2659	1
0	15225	2660	1
0	15241	2664	1
0	15322	2682	1
0	15329	2683	1
0	15345	2687	1
0	15356	2688	2
0	15386	2693	1
0	15415	2697	1
0	15474	2707	1
0	15497	2711	1
0	15514	2715	3
0	15569	2725	1
0	15581	2728	1
0	15587	2729	2
0	15598	2731	1
0	15609	2732	1
0	15616	2733	2
0	15623	2734	2
0	15629	2735	2
0	15644	2740	1
0	15653	2742	1
0	15674	2745	1
0	15689	2750	1
0	15698	2752	1
0	15727	2760	1
0	15739	2761	1
0	15750	2762	1
0	15774	2766	1
0	15793	2768	1
0	15843	2778	1
0	15852	2779	2
0	15863	2780	1
0	15871	2781	2
0	15878	2782	1
0	15885	2783	1
0	15924	2792	1
0	15930	2793	2
0	15948	2797	1
0	15975	2803	1
0	16007	2809	1
0	16067	2818	1
0	16073	2819	2
0	16083	2820	1
0	16092	2821	1
0	16106	2823	1
0	16113	2824	1
0	16120	2825	1
0	16136	2828	1
0	16150	2830	1
0	16163	2833	1
0	16191	2836	1
0	16255	2850	1
0	16266	2851	1
0	16274	2852	2
0	16281	2853	1
0	16294	2854	1
0	16306	2855	2
0	16317	2856	2
0	16327	2857	2
0	16336	2858	1
0	16343	2859	1
0	16354	2861	1
0	16364	2862	1
0	16373	2864	1
0	16404	2872	1
0	16419	2876	1
0	16446	2879	1
0	16455	2880	2
0	16462	2881	1
0	16471	2883	1
0	16502	2887	3
0	16512	2888	1
0	16538	2895	1
0	16597	2908	1
0	16604	2909	1
0	16611	2910	1
0	16642	2915	1
0	16649	2916	2
0	16655	2917	2
0	16669	2920	1
0	16681	2921	2
0	16691	2922	2
0	16697	2923	2
0	16707	2924	1
0	16716	2925	1
0	16728	2927	1
0	16737	2928	2
0	16795	2938	1
0	16806	2939	1
0	16855	2951	1
0	16874	2954	1
0	16920	2962	1
0	16971	2970	1
0	16998	2975	1
0	17020	2981	1
0	17051	2986	1
0	17062	2987	2
0	17074	2989	1
0	17082	2990	1
0	17088	2991	2
0	17150	3014	1
0	17172	3017	1
0	17178	3018	2
0	17185	3019	1
0	17212	3024	1
0	17257	3034	1
0	17271	3037	1
0	17296	3042	1
0	17305	3044	1
0	17351	3052	1
0	17370	3054	1
0	17403	3058	1
0	17415	3059	2
0	17484	3071	1
0	17491	3072	1
0	17502	3075	1
0	17511	3077	1
0	17522	3080	1
0	17546	3087	1
0	17553	3088	1
0	17610	3099	1
0	17628	3102	1
0	17640	3104	1
0	17647	3105	1
0	17655	3106	1
0	17666	3107	2
0	17677	3108	2
0	17688	3109	2
0	17759	3121	1
0	17770	3123	1
0	17800	3127	3
0	17809	3128	2
0	17818	3130	1
0	17905	3145	1
0	17924	3148	1
0	17931	3149	1
0	17940	3151	1
0	17949	3153	1
0	17959	3154	1
0	17972	3155	1
0	17981	3156	2
0	17987	3157	2
0	17998	3159	1
0	18010	3160	1
0	18032	3166	1
0	18047	3168	1
0	18056	3169	2
0	18067	3171	1
0	18093	3175	1
0	18100	3176	1
0	18138	3185	1
0	18160	3191	1
0	18171	3193	1
0	18185	3194	1
0	18209	3197	1
0	18227	3201	1
0	18240	3202	1
0	18251	3203	1
0	18261	3204	1
0	18279	3208	1
0	18301	3212	2
0	18319	3214	1
0	18331	3215	1
0	18357	3222	1
0	18369	3223	1
0	18409	3230	1
0	18430	3232	1
0	18481	3241	1
0	18507	3249	1
0	18523	3251	1
0	18529	3252	2
0	18535	3253	3
0	18567	3258	1
0	18583	3261	1
0	18593	3262	1
0	18607	3266	1
0	18617	3267	2
0	18646	3271	1
0	18698	3282	1
0	18705	3283	1
0	18712	3284	1
0	18744	3290	1
0	18760	3292	1
0	18772	3294	1
0	18795	3297	1
0	18811	3300	1
0	18835	3305	1
0	18841	3306	2
0	18849	3307	1
0	18861	3308	2
0	18913	3315	1
0	18978	3329	1
0	19008	3334	1
0	19021	3337	1
0	19028	3338	2
0	19034	3339	3
0	19043	3340	3
0	19072	3345	1
0	19082	3346	1
0	19099	3348	1
0	19157	3357	1
0	19174	3359	1
0	19184	3360	2
0	19193	3361	2
0	19199	3362	2
0	19215	3365	1
0	19225	3366	1
0	19252	3372	1
0	19271	3374	1
0	19311	3382	1
0	19346	3388	1
0	19364	3391	1
0	19374	3392	1
0	19404	3398	1
0	19417	3399	1
0	19427	3400	2
0	19460	3405	1
0	19476	3408	1
0	19488	3409	1
0	19505	3411	1
0	19536	3415	3
0	19551	3419	1
0	19561	3420	1
0	19668	3440	1
0	19680	3442	1
0	19692	3445	1
0	19699	3446	2
0	19711	3447	2
0	19735	3450	1
0	19752	3452	1
0	19767	3454	1
0	19800	3458	1
0	19811	3459	1
0	19823	3461	1
0	19833	3462	1
0	19848	3465	1
0	19879	3474	1
0	19894	3479	1
0	19922	3487	1
0	19937	3489	1
0	19960	3492	1
0	19972	3495	1
0	19978	3496	2
0	19985	3497	1
0	19993	3498	1
0	20002	3499	2
0	20027	3503	1
0	20036	3505	1
0	20045	3507	1
0	20061	3510	1
0	20097	3514	4
0	20107	3515	4
0	20117	3516	4
0	20146	3519	1
0	20157	3520	2
0	20167	3521	2
0	20188	3524	1
0	20211	3527	1
0	20222	3529	1
0	20245	3534	1
0	20256	3535	2
0	20267	3536	3
0	20297	3542	1
0	20304	3543	2
0	20310	3544	2
0	20336	3551	1
0	20342	3552	2
0	20353	3553	3
0	20374	3556	1
0	20447	3566	1
0	20467	3570	1
0	20474	3571	1
0	20484	3572	1
0	20512	3576	1
0	20525	3577	2
0	20535	3578	2
0	20541	3579	3
0	20550	3580	3
0	20573	3584	1
0	20607	3589	1
0	20630	3593	3
0	20639	3594	3
0	20654	3598	1
0	20669	3603	1
0	20677	3604	1
0	20685	3605	2
0	20691	3606	2
0	20697	3607	3
0	20713	3610	1
0	20724	3613	1
0	20745	3616	1
0	20777	3621	1
0	20790	3623	1
0	20802	3624	2
0	20812	3625	2
0	20825	3626	1
0	20836	3627	1
0	20859	3632	1
0	20865	3633	2
0	20871	3634	3
0	20945	3649	1
0	20990	3656	1
0	21006	3659	1
0	21029	3662	1
0	21057	3667	1
0	21092	3672	1
0	21115	3676	1
0	21138	3681	1
0	21161	3684	1
0	21170	3685	1
0	21192	3689	5
0	21202	3690	6
0	21211	3691	3
0	21219	3692	4
0	21229	3693	4
0	21237	3694	2
0	21265	3698	1
0	21283	3702	1
0	21326	3708	1
0	21339	3709	2
0	21364	3712	1
0	21375	3713	1
0	21387	3714	1
0	21398	3715	1
0	21415	3717	1
0	21425	3718	1
0	21437	3720	1
0	21446	3721	2
0	21477	3729	1
0	21511	3736	1
0	21536	3741	1
0	21547	3742	1
0	21555	3743	2
0	21568	3746	1
0	21584	3750	1
0	21593	3752	1
0	21615	3758	1
0	21626	3759	1
0	21654	3764	1
0	21664	3765	1
0	21679	3769	3
0	21685	3770	3
0	21736	3777	1
0	21747	3778	1
0	21753	3779	2
0	21762	3781	1
0	21769	3782	1
0	21779	3784	1
0	21789	3785	2
0	21797	3786	2
0	21838	3794	1
0	21850	3796	1
0	21859	3797	2
0	21903	3803	1
0	21916	3805	1
0	21922	3806	2
0	21942	3811	1
0	21956	3813	1
0	22005	3820	1
0	22019	3824	1
0	22028	3825	2
0	22072	3832	1
0	22133	3840	1
0	22144	3841	2
0	22156	3843	1
0	22173	3845	1
0	22185	3846	2
0	22196	3847	2
0	22244	3856	1
0	22251	3857	2
0	22272	3861	6
0	22281	3862	6
0	22288	3863	5
0	22295	3864	2
0	22304	3865	2
0	22319	3869	1
0	22338	3876	1
0	22345	3877	1
0	22378	3886	1
0	22399	3894	1
0	22416	3897	1
0	22441	3900	1
0	22459	3902	1
0	22471	3903	1
0	22482	3904	2
0	22505	3907	1
0	22540	3917	1
0	22589	3925	1
0	22605	3927	1
0	22626	3930	1
0	22637	3933	1
0	22700	3951	1
0	22710	3952	1
0	22735	3959	1
0	22741	3960	2
0	22764	3964	1
0	22794	3969	1
0	22812	3973	1
0	22821	3975	1
0	22830	3977	1
0	22852	3981	1
0	22868	3983	1
0	22925	3995	1
0	22943	3998	1
0	22957	4002	1
0	22963	4003	2
0	22997	4010	1
0	23004	4011	1
0	23014	4012	1
0	23040	4017	1
0	23072	4021	1
0	23081	4022	2
0	23117	4029	1
0	23124	4030	2
0	23131	4031	3
0	23137	4032	3
0	23146	4033	3
0	23155	4034	1
0	23171	4037	1
0	23196	4047	1
0	23251	4055	1
0	23262	4056	1
0	23273	4057	1
0	23289	4060	1
0	23295	4061	2
0	23304	4062	3
0	23409	4093	1
0	23415	4094	2
0	23426	4096	1
0	23447	4100	1
0	23463	4104	4
0	23493	4115	1
0	23502	4117	1
0	23529	4121	1
0	23540	4122	2
0	23550	4123	2
0	23557	4124	2
0	23567	4125	2
0	23575	4126	2
0	23582	4127	1
0	23597	4129	1
0	23607	4130	2
0	23615	4131	2
0	23622	4132	1
0	23633	4135	1
0	23649	4138	1
0	23660	4140	1
0	23666	4141	2
0	23672	4142	3
0	23699	4148	1
0	23708	4150	1
0	23715	4151	1
0	23735	4155	1
0	23754	4160	1
0	23760	4161	2
0	23767	4162	1
0	23780	4166	1
0	23787	4167	1
0	23805	4171	1
0	23819	4173	1
0	23844	4180	1
0	23851	4181	1
0	23858	4182	1
0	23865	4183	1
0	23873	4184	1
0	23880	4185	2
0	23886	4186	2
0	23893	4187	1
0	23918	4192	1
0	23936	4196	1
0	23943	4197	1
0	23977	4202	1
0	23999	4205	1
0	24024	4210	1
0	24031	4211	1
0	24051	4216	1
0	24061	4217	1
0	24074	4218	1
0	24089	4219	1
0	24100	4220	1
0	24133	4226	1
0	24150	4228	1
0	24180	4232	1
0	24199	4234	1
0	24218	4237	1
0	24233	4241	1
0	24244	4242	1
0	24252	4243	2
0	24262	4244	2
0	24270	4245	3
0	24285	4249	6
0	24291	4250	5
0	24297	4251	6
0	24325	4255	1
0	24337	4257	1
0	24388	4269	1
0	24402	4271	1
0	24413	4272	2
0	24425	4273	3
0	24522	4291	1
0	24531	4293	1
0	24544	4297	1
0	24562	4301	1
0	24585	4305	1
0	24592	4306	1
0	24599	4307	1
0	24642	4315	1
0	24648	4316	2
0	24654	4317	3
0	24664	4318	1
0	24677	4319	1
0	24686	4320	2
0	24693	4321	2
0	24699	4322	2
0	24710	4324	1
0	24725	4326	1
0	24774	4333	1
0	24803	4339	1
0	24836	4347	1
0	24846	4348	1
0	24873	4352	1
0	24884	4353	1
0	24896	4354	1
0	24910	4356	1
0	24923	4357	1
0	24942	4359	1
0	24951	4360	2
0	24997	4373	1
0	25010	4377	1
0	25019	4379	1
0	25028	4381	1
0	25038	4382	1
0	25051	4385	1
0	25102	4394	1
0	25114	4395	1
0	25123	4396	2
0	25132	4398	1
0	25149	4400	1
0	25160	4401	1
0	25172	4403	1
0	25196	4410	1
0	25209	4413	1
0	25221	4415	1
0	25237	4418	1
0	25244	4419	1
0	25255	4422	1
0	25265	4423	1
0	25277	4424	1
0	25305	4430	1
0	25314	4431	2
0	25333	4435	6
0	25339	4436	5
0	25346	4437	1
0	25354	4438	1
0	25363	4439	2
0	25376	4440	1
0	25389	4441	2
0	25419	4446	1
0	25428	4447	1
0	25434	4448	2
0	25444	4449	3
0	25498	4456	1
0	25508	4457	2
0	25522	4460	1
0	25535	4463	1
0	25567	4468	1
0	25584	4470	1
0	25598	4473	1
0	25609	4476	1
0	25616	4477	1
0	25627	4480	1
0	25661	4486	1
0	25714	4496	1
0	25736	4502	1
0	25745	4504	1
0	25758	4507	1
0	25792	4511	1
0	25823	4515	1
0	25830	4516	2
0	25837	4517	2
0	25865	4521	5
0	25886	4524	1
0	25904	4527	1
0	25975	4537	1
0	25993	4539	1
0	26005	4541	1
0	26015	4543	1
0	26022	4544	2
0	26028	4545	2
0	26055	4548	1
0	26091	4553	1
0	26102	4554	1
0	26108	4555	2
0	26124	4558	1
0	26131	4559	1
0	26171	4569	1
0	26182	4572	1
0	26189	4573	1
0	26221	4577	1
0	26243	4579	1
0	26319	4589	1
0	26387	4599	1
0	26396	4600	2
0	26409	4602	1
0	26429	4607	1
0	26441	4609	1
0	26468	4614	1
0	26490	4617	1
0	26499	4618	2
0	26533	4624	1
0	26550	4628	1
0	26600	4639	1
0	26631	4643	1
0	26669	4650	1
0	26693	4653	1
0	26704	4654	2
0	26739	4660	1
0	26783	4672	1
0	26800	4674	1
0	26810	4675	2
0	26816	4676	2
0	26829	4677	1
0	26886	4685	1
0	26914	4689	1
0	26933	4692	1
0	26940	4693	1
0	26971	4701	1
0	26983	4702	1
0	26993	4703	2
0	27011	4705	1
0	27042	4713	1
0	27052	4714	1
0	27061	4716	1
0	27070	4718	1
0	27136	4732	1
0	27147	4733	1
0	27162	4735	1
0	27174	4736	1
0	27211	4742	1
0	27225	4743	2
0	27260	4747	5
0	27270	4748	5
0	27279	4749	5
0	27288	4750	4
0	27331	4761	1
0	27344	4762	1
0	27410	4772	1
0	27422	4773	2
0	27434	4774	2
0	27444	4775	3
0	27456	4776	3
0	27467	4777	1
0	27482	4781	1
0	27499	4787	1
0	27510	4790	1
0	27517	4791	1
0	27524	4792	1
0	27575	4807	1
0	27581	4808	2
0	27601	4813	1
0	27612	4816	1
0	27619	4817	1
0	27663	4825	1
0	27684	4827	1
0	27696	4828	1
0	27745	4835	1
0	27752	4836	1
0	27777	4841	1
0	27786	4843	1
0	27820	4847	1
0	27853	4851	4
0	27863	4852	4
0	27873	4853	3
0	27883	4854	2
0	27895	4855	1
0	27920	4858	1
0	27936	4860	1
0	27943	4861	1
0	27962	4868	1
0	27996	4876	1
0	28022	4883	1
0	28054	4887	1
0	28064	4888	2
0	28075	4889	1
0	28081	4890	2
0	28119	4897	1
0	28130	4898	2
0	28139	4899	2
0	28157	4902	1
0	28173	4904	1
0	28195	4907	1
0	28208	4911	1
0	28218	4913	1
0	28224	4914	2
0	28242	4917	1
0	28263	4921	1
0	28322	4938	1
0	28333	4941	1
0	28379	4949	1
0	28389	4950	1
0	28405	4954	4
0	28419	4956	1
0	28429	4957	1
0	28473	4968	1
0	28494	4971	1
0	28501	4972	1
0	28518	4977	1
0	28544	4980	1
0	28603	4988	1
0	28614	4991	1
1	2356	400	1
1	2356	400	0
1	2392	407	1
1	2392	407	0
1	2393	407	1
1	2403	408	0
1	2427	411	1
1	2433	412	0
1	2455	416	1
1	2455	416	0
1	2487	420	1
1	2487	420	0
1	2498	422	1
1	2498	422	0
1	2526	431	1
1	2526	431	0
1	2580	443	1
1	2580	443	0
1	2588	444	1
1	2590	444	0
1	2597	445	1
1	2601	445	0
1	2608	446	1
1	2612	446	0
1	2635	449	1
1	2635	449	0
1	2636	449	1
1	2648	450	2
1	2650	450	1
1	2660	451	0
1	2669	452	1
1	2671	452	0
1	2698	462	1
1	2698	462	0
1	2699	462	1
1	2706	463	0
1	2770	473	1
1	2770	473	0
1	2786	476	1
1	2786	476	0
1	2800	478	1
1	2800	478	0
1	2809	480	1
1	2809	480	0
1	2810	480	1
1	2815	481	2
1	2816	481	3
1	2818	481	2
1	2827	482	1
1	2837	483	0
1	2844	484	1
1	2848	484	0
1	2855	485	1
1	2860	485	0
1	2878	488	1
1	2878	488	0
1	2879	488	1
1	2889	489	2
1	2891	489	1
1	2899	490	0
1	2917	495	1
1	2917	495	0
1	2951	502	1
1	2951	502	0
1	2974	505	1
1	2974	505	0
1	2987	507	1
1	2988	507	2
1	3002	509	1
1	3010	510	0
1	3037	516	1
1	3037	516	0
1	3048	519	1
1	3048	519	0
1	3053	520	1
1	3056	520	0
1	3075	525	1
1	3075	525	0
1	3103	534	1
1	3103	534	0
1	3132	541	1
1	3132	541	0
1	3154	547	1
1	3154	547	0
1	3204	557	1
1	3204	557	0
1	3219	560	1
1	3219	560	0
1	3220	560	1
1	3230	561	0
1	3237	562	1
1	3239	562	0
1	3248	564	1
1	3248	564	0
1	3290	572	1
1	3290	572	0
1	3342	581	1
1	3342	581	0
1	3368	589	1
1	3368	589	0
1	3382	591	1
1	3382	591	0
1	3387	592	1
1	3388	592	2
1	3391	592	1
1	3403	593	0
1	3410	594	1
1	3411	594	2
1	3412	594	3
1	3416	594	2
1	3426	595	1
1	3432	596	0
1	3445	600	1
1	3445	600	0
1	3446	600	1
1	3452	601	0
1	3463	604	1
1	3463	604	0
1	3472	606	1
1	3472	606	0
1	3483	609	1
1	3483	609	0
1	3503	612	1
1	3503	612	0
1	3524	617	1
1	3524	617	0
1	3532	619	1
1	3542	621	0
1	3562	624	1
1	3562	624	0
1	3569	625	1
1	3570	625	2
1	3573	625	1
1	3583	626	0
1	3613	636	1
1	3613	636	0
1	3629	640	1
1	3629	640	0
1	3636	641	1
1	3638	641	0
1	3647	643	1
1	3647	643	0
1	3656	645	1
1	3656	645	0
1	3657	645	1
1	3662	646	2
1	3665	646	1
1	3672	647	2
1	3676	647	1
1	3681	648	2
1	3682	648	3
1	3684	648	2
1	3690	649	1
1	3696	650	0
1	3705	652	1
1	3705	652	0
1	3714	654	1
1	3714	654	0
1	3719	655	1
1	3721	655	0
1	3735	658	1
1	3735	658	0
1	3766	665	1
1	3766	665	0
1	3775	667	1
1	3775	667	0
1	3776	667	1
1	3782	668	0
1	3791	670	1
1	3791	670	0
1	3803	672	1
1	3803	672	0
1	3840	678	1
1	3840	678	0
1	3885	687	1
1	3885	687	0
1	3890	688	1
1	3892	688	0
1	3944	699	1
1	3944	699	0
1	3945	699	1
1	3951	700	0
1	3956	701	1
1	3958	701	0
1	3967	703	1
1	3967	703	0
1	3985	706	1
1	3986	706	2
1	3992	707	1
1	3993	707	2
1	3999	708	1
1	4005	709	0
1	4025	714	1
1	4025	714	0
1	4043	718	1
1	4043	718	0
1	4056	722	1
1	4056	722	0
1	4081	726	1
1	4081	726	0
1	4114	731	1
1	4114	731	0
1	4119	732	1
1	4121	732	0
1	4178	744	1
1	4178	744	0
1	4185	745	1
1	4187	745	0
1	4192	746	1
1	4194	746	0
1	4203	748	1
1	4203	748	0
1	4257	760	1
1	4257	760	0
1	4267	761	1
1	4269	761	0
1	4278	762	1
1	4280	762	0
1	4300	765	1
1	4300	765	0
1	4314	767	1
1	4314	767	0
1	4315	767	1
1	4323	768	0
1	4337	771	1
1	4337	771	0
1	4360	775	1
1	4360	775	0
1	4375	779	1
1	4375	779	0
1	4395	784	1
1	4395	784	0
1	4404	786	1
1	4404	786	0
1	4440	792	1
1	4440	792	0
1	4455	794	1
1	4455	794	0
1	4489	806	1
1	4489	806	0
1	4494	807	1
1	4496	807	0
1	4561	823	1
1	4561	823	0
1	4562	823	1
1	4563	823	2
1	4571	824	1
1	4594	828	0
1	4616	832	1
1	4616	832	0
1	4625	833	1
1	4627	833	0
1	4638	835	1
1	4638	835	0
1	4648	836	1
1	4650	836	0
1	4683	841	1
1	4683	841	0
1	4690	842	1
1	4693	842	0
1	4700	843	1
1	4704	843	0
1	4737	852	1
1	4737	852	0
1	4746	854	1
1	4746	854	0
1	4747	854	1
1	4753	855	0
1	4773	858	1
1	4773	858	0
1	4793	861	1
1	4793	861	0
1	4806	864	1
1	4806	864	0
1	4811	865	1
1	4812	865	2
1	4814	865	1
1	4820	866	0
1	4867	880	1
1	4867	880	0
1	4876	881	1
1	4878	881	0
1	4911	889	1
1	4911	889	0
1	4912	889	1
1	4920	890	2
1	4922	890	1
1	4931	891	0
1	4976	900	1
1	4976	900	0
1	4987	902	1
1	4987	902	0
1	4988	902	1
1	4989	902	2
1	4995	903	1
1	5002	904	0
1	5015	906	1
1	5015	906	0
1	5024	907	1
1	5026	907	0
1	5076	914	1
1	5076	914	0
1	5091	919	1
1	5091	919	0
1	5112	925	1
1	5112	925	0
1	5113	925	1
1	5122	926	2
1	5150	929	1
1	5161	930	0
1	5170	931	1
1	5171	931	2
1	5173	931	1
1	5184	932	0
1	5208	935	1
1	5208	935	0
1	5226	937	1
1	5226	937	0
1	5236	938	1
1	5240	938	0
1	5264	941	1
1	5264	941	0
1	5283	943	1
1	5283	943	0
1	5301	947	1
1	5301	947	0
1	5308	948	1
1	5310	948	0
1	5323	952	1
1	5323	952	0
1	5387	961	1
1	5387	961	0
1	5396	962	1
1	5400	962	0
1	5409	963	1
1	5410	963	2
1	5412	963	1
1	5422	964	0
1	5478	972	1
1	5478	972	0
1	5486	973	1
1	5488	973	0
1	5499	975	1
1	5499	975	0
1	5537	984	1
1	5537	984	0
1	5545	985	1
1	5547	985	0
1	5571	991	1
1	5571	991	0
1	5603	997	1
1	5603	997	0
1	5612	999	1
1	5612	999	0
1	5613	999	1
1	5619	1000	0
1	5630	1003	1
1	5630	1003	0
1	5648	1007	1
1	5648	1007	0
1	5659	1010	1
1	5659	1010	0
1	5712	1019	1
1	5712	1019	0
1	5713	1019	1
1	5723	1020	0
1	5756	1028	1
1	5756	1028	0
1	5757	1028	1
1	5765	1029	2
1	5767	1029	1
1	5775	1030	0
1	5780	1031	1
1	5781	1031	2
1	5783	1031	1
1	5791	1032	0
1	5798	1033	1
1	5805	1033	0
1	5812	1034	1
1	5816	1034	0
1	5854	1039	1
1	5854	1039	0
1	5855	1039	1
1	5865	1040	0
1	5893	1044	1
1	5893	1044	0
1	5898	1045	1
1	5900	1045	0
1	5905	1046	1
1	5906	1046	2
1	5908	1046	1
1	5913	1047	2
1	5916	1047	1
1	5927	1048	0
1	5948	1054	1
1	5948	1054	0
1	5957	1056	1
1	5957	1056	0
1	5983	1064	1
1	5983	1064	0
1	6002	1067	1
1	6002	1067	0
1	6018	1069	1
1	6018	1069	0
1	6023	1070	1
1	6025	1070	0
1	6034	1072	1
1	6034	1072	0
1	6053	1075	1
1	6053	1075	0
1	6054	1075	1
1	6065	1076	0
1	6118	1085	1
1	6118	1085	0
1	6156	1093	1
1	6156	1093	0
1	6161	1094	1
1	6164	1094	0
1	6191	1098	1
1	6191	1098	0
1	6210	1101	1
1	6210	1101	0
1	6211	1101	1
1	6218	1102	2
1	6221	1102	1
1	6232	1103	0
1	6254	1106	1
1	6260	1107	0
1	6261	1107	1
1	6270	1108	0
1	6277	1109	1
1	6279	1109	0
1	6304	1114	1
1	6304	1114	0
1	6320	1117	1
1	6320	1117	0
1	6321	1117	1
1	6327	1118	0
1	6358	1126	1
1	6358	1126	0
1	6381	1131	1
1	6381	1131	0
1	6382	1131	1
1	6390	1132	0
1	6402	1134	1
1	6402	1134	0
1	6445	1142	1
1	6445	1142	0
1	6482	1148	1
1	6482	1148	0
1	6500	1150	1
1	6500	1150	0
1	6518	1152	1
1	6518	1152	0
1	6546	1156	1
1	6546	1156	0
1	6640	1175	1
1	6640	1175	0
1	6649	1176	1
1	6651	1176	0
1	6672	1183	1
1	6672	1183	0
1	6677	1184	1
1	6680	1184	0
1	6697	1188	1
1	6697	1188	0
1	6698	1188	1
1	6705	1189	0
1	6718	1191	1
1	6718	1191	0
1	6723	1192	1
1	6726	1192	0
1	6743	1196	1
1	6743	1196	0
1	6759	1199	1
1	6759	1199	0
1	6778	1201	1
1	6778	1201	0
1	6779	1201	1
1	6789	1202	0
1	6798	1203	1
1	6800	1203	0
1	6829	1208	1
1	6829	1208	0
1	6830	1208	1
1	6831	1208	2
1	6841	1209	3
1	6843	1209	2
1	6873	1213	1
1	6883	1214	0
1	6896	1217	1
1	6896	1217	0
1	6897	1217	1
1	6903	1218	0
1	6917	1221	1
1	6917	1221	0
1	6932	1225	1
1	6932	1225	0
1	6940	1226	1
1	6943	1226	0
1	6958	1228	1
1	6958	1228	0
1	7000	1235	1
1	7000	1235	0
1	7044	1246	1
1	7044	1246	0
1	7049	1247	1
1	7051	1247	0
1	7095	1254	1
1	7095	1254	0
1	7112	1256	1
1	7112	1256	0
1	7135	1260	1
1	7135	1260	0
1	7146	1262	1
1	7146	1262	0
1	7147	1262	1
1	7153	1263	0
1	7164	1266	1
1	7164	1266	0
1	7224	1276	1
1	7224	1276	0
1	7248	1281	1
1	7248	1281	0
1	7274	1286	1
1	7274	1286	0
1	7287	1290	1
1	7287	1290	0
1	7301	1293	1
1	7301	1293	0
1	7302	1293	1
1	7312	1294	2
1	7314	1294	1
1	7322	1295	0
1	7339	1299	1
1	7339	1299	0
1	7393	1309	1
1	7393	1309	0
1	7437	1316	1
1	7437	1316	0
1	7438	1316	1
1	7448	1317	0
1	7455	1318	1
1	7460	1318	0
1	7486	1322	1
1	7486	1322	0
1	7505	1326	1
1	7505	1326	0
1	7510	1327	1
1	7512	1327	0
1	7527	1330	1
1	7527	1330	0
1	7528	1330	1
1	7529	1330	2
1	7539	1331	1
1	7546	1332	2
1	7547	1332	3
1	7549	1332	2
1	7554	1333	3
1	7557	1333	2
1	7570	1334	1
1	7581	1335	0
1	7588	1336	1
1	7593	1336	0
1	7707	1360	1
1	7707	1360	0
1	7722	1362	1
1	7722	1362	0
1	7733	1365	1
1	7733	1365	0
1	7742	1367	1
1	7742	1367	0
1	7747	1368	1
1	7749	1368	0
1	7754	1369	1
1	7757	1369	0
1	7775	1372	1
1	7775	1372	0
1	7801	1375	1
1	7801	1375	0
1	7816	1377	1
1	7816	1377	0
1	7836	1379	1
1	7836	1379	0
1	7854	1381	1
1	7854	1381	0
1	7899	1389	1
1	7899	1389	0