version 3
run Experimentos-739-20260514-09:21:33-7122
attr configname Experimentos
attr datetime 20260514-09:21:33
attr datetimef 20260514-092133
attr experiment Experimentos
attr inifile TwoQueues.ini
attr iterationvars "$p=0.7, $q=0.3, $Y=10, $m=2"
attr iterationvarsd p=0.7/q=0.3/Y=10/m=2
attr iterationvarsf p=0.7,q=0.3,Y=10,m=2-
attr measurement "$p=0.7, $q=0.3, $Y=10, $m=2"
attr network TwoQueues
attr processid 7122
attr repetition 19
attr replication #19
attr resultdir results
attr runnumber 739
attr seedset 739
itervar Y 10
itervar m 2
itervar p 0.7
itervar q 0.3
config description "Barrido completo de parámetros Proyecto 12"
config **.source1.p 0.7
config **.source1.q 0.2
config **.source2.p 0.6
config **.source2.q 0.3
config **.serverWithMaintenance.Y 10
config **.serverWithMaintenance.m 2
config network TwoQueues
config cpu-time-limit 5000s
config sim-time-limit 5000s
config warmup-period 400s
config repeat 20
config output-scalar-file results/Experimentos-p=0.7,q=0.3,Y=10,m=2--#19.sca
config output-vector-file results/Experimentos-p=0.7,q=0.3,Y=10,m=2--#19.vec
config **.vector-recording true

vector 0 TwoQueues.serverWithMaintenance residenceTime2:vector ETV
attr recordingmode vector
attr source delay2
attr title "Residence Time Class 2"
vector 1 TwoQueues.queue2 queueLengthStats:vector ETV
attr recordingmode vector
attr source qlen
attr title "Average Queue Length"
vector 2 TwoQueues.queue1 queueLengthStats:vector ETV
attr recordingmode vector
attr source qlen
attr title "Average Queue Length"
vector 3 TwoQueues.server residenceTime1:vector ETV
attr recordingmode vector
attr source delay1
attr title "Residence Time Class 1"
vector 4 TwoQueues.server throughputStats1:vector ETV
attr recordingmode vector
attr source throughput1
attr title "Throughput Class 1"
0	2224	400	1
0	2231	401	1
0	2240	403	1
0	2259	406	2
0	2269	407	1
0	2288	414	1
0	2350	430	1
0	2359	432	1
0	2389	437	1
0	2411	443	1
0	2457	454	1
0	2468	455	1
0	2484	457	1
0	2503	460	3
0	2516	462	1
0	2526	463	2
0	2563	471	1
0	2583	475	1
0	2611	478	1
0	2623	479	2
0	2657	484	1
0	2666	485	2
0	2677	488	1
0	2689	491	2
0	2696	492	1
0	2708	494	1
0	2719	495	2
0	2738	498	1
0	2752	502	1
0	2758	503	2
0	2765	504	1
0	2811	511	1
0	2821	512	2
0	2852	516	1
0	2862	517	1
0	2874	518	1
0	2885	519	2
0	2896	520	2
0	2911	524	1
0	2918	525	1
0	2934	527	1
0	2948	528	1
0	2974	533	1
0	3005	543	1
0	3034	549	1
0	3077	555	1
0	3118	563	1
0	3127	564	2
0	3163	573	1
0	3208	583	1
0	3219	584	1
0	3263	592	1
0	3273	593	1
0	3295	596	3
0	3304	597	4
0	3329	601	1
0	3348	604	1
0	3357	606	1
0	3400	615	1
0	3425	622	1
0	3434	623	2
0	3483	630	1
0	3535	640	1
0	3554	644	1
0	3591	650	1
0	3627	663	1
0	3666	671	1
0	3677	672	1
0	3687	673	1
0	3698	674	1
0	3706	675	2
0	3743	682	1
0	3783	690	1
0	3809	695	1
0	3821	697	1
0	3849	706	1
0	3875	710	1
0	3897	713	1
0	3908	714	1
0	3926	716	1
0	3949	721	1
0	3970	724	1
0	4009	731	1
0	4032	734	2
0	4042	735	3
0	4054	736	3
0	4065	737	2
0	4078	738	2
0	4095	740	1
0	4107	741	1
0	4119	743	1
0	4130	746	1
0	4148	749	1
0	4169	753	1
0	4180	754	1
0	4211	761	1
0	4222	762	1
0	4233	763	1
0	4244	765	1
0	4254	767	1
0	4260	768	2
0	4267	769	1
0	4274	770	1
0	4331	788	1
0	4359	796	1
0	4381	800	1
0	4391	801	2
0	4404	802	2
0	4412	803	2
0	4425	804	3
0	4435	805	2
0	4460	808	1
0	4471	809	2
0	4507	817	1
0	4528	821	1
0	4556	830	1
0	4563	831	1
0	4598	836	1
0	4642	843	1
0	4679	850	1
0	4696	852	1
0	4706	853	2
0	4714	854	2
0	4753	863	1
0	4762	865	1
0	4775	869	1
0	4784	871	1
0	4791	872	1
0	4817	879	1
0	4836	882	1
0	4854	884	1
0	4864	885	2
0	4876	886	1
0	4904	889	3
0	4954	902	1
0	4973	905	1
0	4998	908	1
0	5022	911	1
0	5037	913	1
0	5056	916	1
0	5062	917	2
0	5074	919	1
0	5118	925	1
0	5131	928	2
0	5137	929	2
0	5148	932	1
0	5222	945	1
0	5248	948	1
0	5258	949	2
0	5265	950	2
0	5272	951	2
0	5279	952	2
0	5289	953	2
0	5309	956	1
0	5337	961	1
0	5344	962	1
0	5355	965	1
0	5362	966	1
0	5369	967	1
0	5399	971	1
0	5424	976	1
0	5441	978	1
0	5465	984	1
0	5487	987	3
0	5499	989	1
0	5523	995	1
0	5536	997	1
0	5543	998	2
0	5554	999	2
0	5598	1005	1
0	5608	1006	1
0	5622	1008	1
0	5630	1009	1
0	5648	1012	4
0	5659	1013	4
0	5669	1014	3
0	5686	1016	1
0	5696	1017	1
0	5721	1021	1
0	5727	1022	2
0	5736	1023	3
0	5745	1024	1
0	5759	1026	1
0	5785	1031	1
0	5792	1032	1
0	5812	1037	1
0	5820	1038	1
0	5828	1039	2
0	5834	1040	2
0	5840	1041	3
0	5847	1042	1
0	5870	1046	1
0	5877	1047	1
0	5889	1050	2
0	5906	1056	1
0	5924	1059	1
0	5938	1062	1
0	5945	1063	1
0	5952	1064	1
0	5966	1066	1
0	5996	1071	1
0	6012	1074	1
0	6026	1076	1
0	6065	1085	1
0	6101	1095	1
0	6107	1096	2
0	6123	1099	1
0	6143	1104	1
0	6153	1105	1
0	6166	1107	1
0	6178	1108	1
0	6231	1118	1
0	6238	1119	1
0	6255	1122	1
0	6278	1126	1
0	6295	1129	1
0	6305	1130	2
0	6323	1132	1
0	6339	1134	1
0	6350	1137	1
0	6361	1140	1
0	6430	1152	1
0	6448	1155	1
0	6471	1158	3
0	6494	1161	1
0	6517	1165	1
0	6539	1170	1
0	6549	1171	1
0	6571	1177	1
0	6589	1182	1
0	6598	1183	2
0	6605	1184	1
0	6693	1203	1
0	6711	1206	2
0	6718	1207	2
0	6727	1208	2
0	6740	1210	1
0	6759	1213	1
0	6790	1221	1
0	6806	1223	1
0	6832	1226	1
0	6860	1231	1
0	6886	1238	1
0	6935	1249	1
0	6945	1250	2
0	6951	1251	2
0	6977	1258	1
0	7001	1262	1
0	7012	1263	1
0	7022	1264	1
0	7035	1268	1
0	7051	1272	1
0	7063	1273	1
0	7081	1276	4
0	7099	1278	1
0	7110	1279	1
0	7145	1284	1
0	7158	1286	1
0	7164	1287	2
0	7173	1289	1
0	7183	1290	1
0	7192	1291	1
0	7257	1306	1
0	7288	1315	1
0	7358	1328	1
0	7367	1329	2
0	7390	1333	1
0	7399	1334	2
0	7436	1339	1
0	7453	1341	1
0	7497	1348	1
0	7504	1349	1
0	7511	1350	1
0	7551	1363	1
0	7562	1364	1
0	7574	1366	1
0	7585	1367	1
0	7593	1368	2
0	7621	1377	1
0	7635	1380	1
0	7660	1383	1
0	7672	1384	1
0	7690	1386	1
0	7706	1389	4
0	7717	1390	4
0	7739	1393	1
0	7756	1398	1
0	7768	1400	1
0	7775	1401	1
0	7797	1407	1
0	7817	1412	1
0	7843	1420	1
0	7854	1421	1
0	7881	1424	3
0	7891	1425	3
0	7903	1427	1
0	7916	1431	1
0	7926	1433	1
0	7935	1434	2
0	7944	1435	1
0	7979	1440	1
0	7990	1441	1
0	8043	1453	1
0	8094	1461	1
0	8113	1464	1
0	8166	1472	1
0	8176	1473	1
0	8185	1475	1
0	8197	1478	1
0	8206	1479	2
0	8226	1482	1
0	8265	1489	1
0	8277	1491	1
0	8291	1494	1
0	8305	1497	1
0	8341	1507	1
0	8347	1508	2
0	8360	1512	1
0	8383	1516	1
0	8409	1521	1
0	8415	1522	2
0	8426	1525	1
0	8437	1526	1
0	8456	1529	4
0	8462	1530	2
0	8472	1531	1
0	8488	1533	1
0	8495	1534	1
0	8506	1535	1
0	8514	1536	2
0	8534	1541	1
0	8548	1543	1
0	8556	1544	1
0	8576	1547	4
0	8600	1550	1
0	8622	1553	1
0	8654	1557	1
0	8664	1558	1
0	8689	1562	1
0	8699	1563	1
0	8716	1569	1
0	8726	1570	1
0	8735	1571	1
0	8747	1574	3
0	8768	1579	1
0	8774	1580	2
0	8784	1582	1
0	8793	1583	2
0	8809	1585	1
0	8819	1586	1
0	8843	1592	1
0	8860	1595	1
0	8867	1596	2
0	8879	1599	4
0	8888	1600	3
0	8899	1602	1
0	8926	1608	1
0	8950	1611	1
0	8960	1612	2
0	8968	1613	2
0	8974	1614	2
0	8982	1615	3
0	8993	1616	2
0	9018	1619	5
0	9029	1620	5
0	9071	1627	1
0	9077	1628	2
0	9098	1632	1
0	9111	1633	2
0	9155	1642	1
0	9172	1644	1
0	9216	1649	1
0	9253	1654	1
0	9280	1657	4
0	9289	1658	3
0	9295	1659	3
0	9304	1661	1
0	9312	1662	1
0	9318	1663	2
0	9327	1665	1
0	9337	1666	1
0	9349	1668	1
0	9355	1669	2
0	9370	1672	1
0	9380	1673	2
0	9386	1674	2
0	9395	1676	1
0	9422	1681	1
0	9434	1683	1
0	9445	1684	1
0	9457	1685	1
0	9474	1687	1
0	9488	1690	1
0	9521	1696	1
0	9528	1697	1
0	9537	1699	1
0	9544	1700	1
0	9565	1705	1
0	9571	1706	2
0	9589	1710	1
0	9601	1711	1
0	9610	1712	2
0	9616	1713	3
0	9632	1716	5
0	9642	1717	4
0	9648	1718	4
0	9654	1719	4
0	9660	1720	4
0	9697	1726	1
0	9704	1727	1
0	9744	1737	1
0	9755	1739	1
0	9767	1741	1
0	9779	1744	3
0	9811	1750	1
0	9818	1751	1
0	9847	1758	1
0	9872	1763	1
0	9879	1764	1
0	9908	1770	1
0	9919	1771	1
0	9925	1772	2
0	9948	1776	1
0	9980	1780	1
0	9991	1781	1
0	10030	1789	1
0	10041	1790	1
0	10049	1791	2
0	10058	1793	1
0	10081	1797	1
0	10088	1798	1
0	10099	1799	1
0	10174	1816	1
0	10206	1824	1
0	10216	1825	1
0	10225	1826	1
0	10241	1829	1
0	10253	1830	1
0	10264	1831	2
0	10274	1832	2
0	10293	1834	1
0	10320	1840	1
0	10330	1841	1
0	10343	1844	2
0	10350	1845	2
0	10356	1846	2
0	10373	1852	1
0	10395	1858	1
0	10420	1862	1
0	10446	1865	1
0	10471	1871	1
0	10487	1874	1
0	10500	1877	1
0	10518	1881	1
0	10528	1882	2
0	10551	1885	1
0	10557	1886	2
0	10565	1887	1
0	10571	1888	2
0	10578	1889	1
0	10656	1904	1
0	10665	1905	2
0	10676	1907	1
0	10696	1910	1
0	10706	1912	1
0	10716	1913	2
0	10727	1914	2
0	10738	1916	1
0	10781	1925	1
0	10820	1931	1
0	10844	1934	1
0	10851	1935	1
0	10858	1936	1
0	10930	1948	1
0	10942	1950	1
0	10949	1951	1
0	10971	1957	1
0	11005	1964	1
0	11021	1966	1
0	11034	1967	1
0	11049	1968	1
0	11059	1969	2
0	11070	1970	3
0	11085	1973	4
0	11094	1974	2
0	11107	1977	1
0	11133	1981	1
0	11146	1982	2
0	11156	1983	2
0	11190	1993	1
0	11196	1994	2
0	11207	1996	1
0	11223	2000	1
0	11345	2022	1
0	11387	2030	1
0	11398	2031	2
0	11412	2034	1
0	11425	2038	1
0	11441	2041	1
0	11454	2045	1
0	11479	2049	1
0	11491	2051	1
0	11539	2064	1
0	11556	2068	1
0	11567	2070	1
0	11620	2082	1
0	11627	2083	2
0	11636	2084	2
0	11662	2091	1
0	11680	2095	1
0	11727	2106	1
0	11743	2108	1
0	11783	2119	1
0	11801	2125	1
0	11859	2138	1
0	11868	2139	2
0	11876	2140	3
0	11887	2142	1
0	11899	2144	1
0	11906	2145	1
0	11920	2147	1
0	11931	2150	1
0	11941	2152	1
0	11957	2155	4
0	11990	2160	1
0	12001	2161	1
0	12026	2167	1
0	12056	2172	1
0	12086	2180	1
0	12097	2181	2
0	12110	2182	2
0	12120	2183	2
0	12132	2185	1
0	12149	2188	1
0	12171	2193	1
0	12183	2195	1
0	12192	2197	1
0	12206	2199	1
0	12218	2201	1
0	12234	2203	1
0	12255	2207	1
0	12267	2208	2
0	12278	2209	1
0	12295	2212	1
0	12305	2213	1
0	12315	2214	1
0	12377	2228	1
0	12414	2238	1
0	12438	2241	1
0	12450	2242	1
0	12467	2244	1
0	12474	2245	1
0	12481	2246	1
0	12534	2257	1
0	12570	2262	1
0	12580	2263	2
0	12600	2265	1
0	12637	2271	1
0	12667	2276	1
0	12678	2278	1
0	12719	2287	1
0	12737	2290	1
0	12747	2291	1
0	12764	2294	3
0	12774	2295	1
0	12802	2300	1
0	12808	2301	2
0	12839	2307	1
0	12851	2308	1
0	12862	2309	2
0	12878	2311	1
0	12887	2313	1
0	12894	2314	1
0	12911	2317	1
0	12927	2320	1
0	12943	2322	1
0	12953	2323	1
0	12966	2327	1
0	12988	2332	1
0	13000	2334	1
0	13060	2343	1
0	13090	2347	1
0	13121	2352	1
0	13145	2355	3
0	13161	2359	1
0	13168	2360	1
0	13176	2361	1
0	13187	2362	2
0	13198	2363	1
0	13215	2366	1
0	13268	2380	1
0	13286	2384	1
0	13309	2388	1
0	13339	2397	1
0	13345	2398	2
0	13402	2414	1
0	13417	2418	1
0	13428	2419	1
0	13435	2420	2
0	13445	2421	2
0	13457	2422	1
0	13465	2423	2
0	13479	2425	1
0	13493	2428	3
0	13514	2432	1
0	13540	2436	1
0	13554	2437	1
0	13566	2438	2
0	13577	2439	2
0	13588	2440	1
0	13600	2441	1
0	13609	2442	2
0	13616	2443	1
0	13633	2446	2
0	13642	2448	1
0	13649	2449	1
0	13687	2458	1
0	13697	2459	1
0	13711	2460	1
0	13768	2472	1
0	13777	2473	2
0	13788	2474	1
0	13797	2475	2
0	13811	2478	4
0	13857	2485	1
0	13895	2492	1
0	13907	2493	2
0	13917	2494	2
0	13933	2497	1
0	13943	2498	1
0	13966	2503	1
0	13975	2504	2
0	13984	2506	1
0	14002	2509	3
0	14009	2510	3
0	14015	2511	2
0	14033	2514	1
0	14055	2516	1
0	14079	2519	1
0	14090	2520	1
0	14104	2523	1
0	14118	2527	1
0	14130	2528	2
0	14153	2531	4
0	14210	2543	1
0	14219	2545	1
0	14229	2546	1
0	14241	2547	1
0	14250	2548	1
0	14260	2550	1
0	14266	2551	2
0	14273	2552	1
0	14280	2553	1
0	14296	2556	1
0	14314	2558	1
0	14326	2559	1
0	14337	2560	1
0	14356	2564	1
0	14365	2565	2
0	14386	2569	1
0	14397	2570	1
0	14410	2571	1
0	14440	2576	1
0	14468	2579	3
0	14492	2582	1
0	14516	2585	1
0	14526	2586	1
0	14544	2588	1
0	14556	2590	1
0	14564	2591	1
0	14571	2592	2
0	14580	2593	2
0	14589	2594	1
0	14603	2598	1
0	14610	2599	1
0	14617	2600	1
0	14649	2608	1
0	14655	2609	2
0	14694	2616	1
0	14734	2626	1
0	14754	2630	1
0	14778	2638	1
0	14791	2642	1
0	14803	2645	2
0	14859	2658	1
0	14866	2659	1
0	14873	2660	1
0	14883	2661	1
0	14899	2663	1
0	14906	2664	1
0	14919	2667	1
0	14940	2672	1
0	14951	2673	2
0	14968	2676	2
0	14980	2677	1
0	14994	2678	1
0	15027	2684	1
0	15059	2689	1
0	15078	2691	1
0	15090	2692	1
0	15104	2695	1
0	15113	2697	1
0	15149	2703	1
0	15168	2706	4
0	15177	2707	5
0	15184	2708	4
0	15194	2709	4
0	15206	2710	5
0	15216	2711	4
0	15224	2712	3
0	15261	2718	1
0	15279	2721	1
0	15298	2724	1
0	15318	2727	3
0	15330	2728	1
0	15339	2729	2
0	15364	2736	1
0	15371	2737	2
0	15377	2738	2
0	15384	2739	1
0	15425	2747	1
0	15434	2749	1
0	15443	2751	1
0	15463	2754	2
0	15497	2765	1
0	15509	2766	1
0	15520	2767	1
0	15539	2770	1
0	15572	2777	1
0	15578	2778	2
0	15592	2780	1
0	15602	2781	1
0	15615	2784	1
0	15638	2787	3
0	15644	2788	2
0	15672	2796	1
0	15695	2800	1
0	15717	2804	1
0	15725	2805	2
0	15733	2806	2
0	15739	2807	3
0	15745	2808	3
0	15755	2809	4
0	15774	2812	4
0	15780	2813	4
0	15852	2829	1
0	15859	2830	1
0	15899	2839	1
0	15974	2855	1
0	15985	2857	1
0	16023	2867	1
0	16045	2873	1
0	16067	2879	1
0	16084	2882	3
0	16100	2885	1
0	16118	2889	1
0	16126	2890	1
0	16136	2891	2
0	16146	2892	2
0	16152	2893	2
0	16158	2894	3
0	16168	2895	1
0	16205	2905	1
0	16238	2911	1
0	16251	2914	1
0	16265	2917	1
0	16276	2918	1
0	16291	2920	1
0	16321	2924	1
0	16332	2925	1
0	16338	2926	2
0	16354	2928	1
0	16384	2933	1
0	16401	2936	4
0	16410	2937	5
0	16423	2938	4
0	16433	2939	2
0	16457	2945	1
0	16464	2946	1
0	16473	2948	1
0	16530	2959	1
0	16585	2974	1
0	16602	2980	1
0	16619	2983	2
0	16628	2985	1
0	16674	2995	1
0	16685	2996	2
0	16697	2997	2
0	16708	2998	2
0	16718	2999	2
0	16730	3000	1
0	16751	3004	1
0	16772	3012	1
0	16784	3015	3
0	16795	3017	1
0	16816	3021	1
0	16823	3022	1
0	16867	3030	1
0	16878	3031	1
0	16906	3034	1
0	16917	3035	1
0	16953	3040	1
0	16965	3041	2
0	16987	3044	5
0	16996	3045	5
0	17002	3046	4
0	17009	3047	1
0	17057	3056	1
0	17073	3058	1
0	17079	3059	2
0	17085	3060	3
0	17101	3063	1
0	17108	3064	1
0	17121	3067	3
0	17127	3068	2
0	17134	3069	1
0	17188	3080	1
0	17233	3091	1
0	17240	3092	1
0	17305	3103	1
0	17317	3104	2
0	17328	3105	2
0	17337	3106	2
0	17362	3109	5
0	17369	3110	4
0	17376	3111	3
0	17383	3112	3
0	17389	3113	3
0	17395	3114	3
0	17402	3115	1
0	17409	3116	1
0	17419	3117	1
0	17428	3118	1
0	17440	3121	3
0	17460	3126	1
0	17479	3129	1
0	17528	3136	1
0	17555	3139	1
0	17580	3143	1
0	17586	3144	2
0	17599	3148	1
0	17617	3152	1
0	17679	3168	1
0	17698	3171	2
0	17721	3175	1
0	17731	3176	1
0	17806	3190	1
0	17816	3191	1
0	17829	3195	1
0	17847	3198	1
0	17859	3200	1
0	17869	3201	1
0	17913	3211	1
0	17936	3214	1
0	17946	3215	2
0	17955	3216	2
0	17964	3217	1
0	17972	3218	1
0	17978	3219	2
0	18009	3227	1
0	18020	3230	1
0	18034	3232	1
0	18069	3237	1
0	18087	3241	1
0	18101	3242	1
0	18114	3243	2
0	18134	3245	1
0	18159	3248	1
0	18233	3258	1
0	18302	3273	1
0	18311	3275	1
0	18320	3277	1
0	18327	3278	1
0	18341	3282	1
0	18442	3301	1
0	18453	3302	1
0	18494	3307	1
0	18513	3309	1
0	18539	3312	1
0	18549	3313	2
0	18558	3314	2
0	18589	3321	1
0	18598	3323	1
0	18618	3326	1
0	18671	3333	1
0	18709	3338	1
0	18745	3346	1
0	18752	3347	1
0	18760	3348	1
0	18768	3349	2
0	18774	3350	2
0	18783	3351	3
0	18796	3352	1
0	18816	3355	3
0	18823	3356	3
0	18829	3357	4
0	18836	3358	3
0	18846	3359	2
0	18858	3360	2
0	18870	3361	2
0	18878	3362	2
0	18885	3363	1
0	18902	3369	1
0	18924	3372	2
0	18934	3373	3
0	18943	3374	4
0	18988	3381	1
0	19005	3383	1
0	19044	3388	1
0	19071	3392	1
0	19088	3395	1
0	19100	3396	1
0	19111	3397	1
0	19141	3402	1
0	19147	3403	2
0	19158	3406	1
0	19169	3408	1
0	19295	3431	1
0	19311	3434	1
0	19331	3439	1
0	19343	3441	1
0	19379	3449	1
0	19411	3455	1
0	19431	3458	3
0	19442	3459	4
0	19455	3460	1
0	19477	3465	1
0	19502	3471	1
0	19558	3480	1
0	19564	3481	2
0	19585	3485	1
0	19598	3486	2
0	19607	3487	2
0	19622	3490	5
0	19631	3491	4
0	19637	3492	4
0	19644	3493	1
0	19653	3495	1
0	19670	3501	1
0	19693	3504	1
0	19741	3512	1
0	19752	3513	1
0	19777	3516	1
0	19814	3525	1
0	19824	3526	1
0	19835	3528	1
0	19842	3529	1
0	19871	3533	1
0	19877	3534	2
0	19924	3550	1
0	19931	3551	1
0	19942	3554	1
0	19976	3559	1
0	20004	3562	1
0	20015	3563	1
0	20026	3564	1
0	20042	3566	1
0	20078	3579	1
0	20153	3594	1
0	20206	3602	1
0	20217	3603	1
0	20228	3604	2
0	20236	3605	2
0	20247	3608	5
0	20254	3609	1
0	20284	3614	1
0	20321	3619	1
0	20341	3625	1
0	20348	3626	1
0	20357	3628	1
0	20373	3631	1
0	20393	3636	1
0	20435	3646	1
0	20464	3650	1
0	20516	3658	1
0	20536	3662	1
0	20567	3670	1
0	20581	3672	1
0	20592	3673	1
0	20610	3676	1
0	20616	3677	2
0	20623	3678	1
0	20643	3683	1
0	20667	3686	1
0	20680	3687	1
0	20692	3688	1
0	20702	3689	2
0	20708	3690	2
0	20717	3692	1
0	20724	3693	1
0	20731	3694	1
0	20741	3696	1
0	20752	3697	2
0	20794	3705	1
0	20803	3707	1
0	20820	3709	1
0	20865	3715	1
0	20916	3725	1
0	20926	3726	1
0	20957	3734	1
0	20995	3742	1
0	21025	3746	1
0	21036	3747	2
0	21055	3750	4
0	21082	3754	1
0	21095	3755	1
0	21106	3756	1
0	21128	3759	1
0	21143	3763	1
0	21165	3766	1
0	21190	3770	1
0	21206	3772	1
0	21242	3778	1
0	21258	3781	4
0	21268	3782	4
0	21279	3783	5
0	21299	3785	1
0	21315	3787	1
0	21345	3792	1
0	21356	3795	1
0	21370	3799	1
0	21376	3800	2
0	21413	3807	1
0	21450	3815	1
0	21461	3816	2
0	21475	3818	1
0	21497	3821	1
0	21509	3822	2
0	21520	3823	2
0	21526	3824	2
0	21535	3825	3
0	21544	3826	1
0	21574	3836	1
0	21591	3839	2
0	21609	3843	1
0	21640	3851	1
0	21650	3852	1
0	21663	3853	1
0	21676	3854	2
0	21687	3855	2
0	21699	3856	2
0	21707	3857	2
0	21714	3858	1
0	21733	3861	2
0	21750	3863	1
0	21771	3867	1
0	21789	3870	1
0	21798	3872	1
0	21827	3881	1
0	21833	3882	2
0	21900	3892	1
0	21919	3895	1
0	21965	3904	1
0	21993	3907	2
0	22017	3911	1
0	22024	3912	1
0	22040	3914	1
0	22063	3918	1
0	22145	3935	1
0	22155	3937	1
0	22161	3938	2
0	22168	3939	1
0	22184	3941	1
0	22207	3945	1
0	22213	3946	2
0	22234	3949	1
0	22255	3953	1
0	22271	3955	1
0	22281	3956	1
0	22326	3965	1
0	22345	3968	1
0	22391	3974	1
0	22433	3986	1
0	22452	3989	2
0	22464	3991	1
0	22516	3998	1
0	22534	4000	1
0	22546	4002	1
0	22575	4009	1
0	22599	4015	1
0	22630	4024	1
0	22641	4025	1
0	22649	4026	2
0	22661	4029	2
0	22684	4033	1
0	22722	4043	1
0	22732	4044	2
0	22738	4045	2
0	22747	4047	1
0	22771	4052	1
0	22781	4053	2
0	22793	4055	1
0	22809	4058	1
0	22824	4061	3
0	22835	4062	3
0	22847	4064	1
0	22860	4067	1
0	22874	4070	1
0	22891	4076	1
0	22898	4077	1
0	22916	4081	1
0	22957	4091	1
0	22963	4092	2
0	22984	4097	1
0	23000	4099	1
0	23030	4109	1
0	23040	4110	1
0	23058	4113	1
0	23086	4117	1
0	23112	4126	1
0	23148	4134	1
0	23161	4138	1
0	23168	4139	1
0	23181	4142	2
0	23187	4143	3
0	23205	4147	1
0	23221	4151	1
0	23230	4152	2
0	23252	4158	1
0	23259	4159	1
0	23266	4160	1
0	23275	4162	1
0	23293	4165	1
0	23310	4169	1
0	23317	4170	1
0	23330	4173	1
0	23360	4180	1
0	23369	4181	2
0	23380	4184	1
0	23393	4188	1
0	23433	4199	1
0	23442	4200	2
0	23455	4201	1
0	23481	4204	3
0	23491	4205	3
0	23502	4206	1
0	23530	4216	1
0	23539	4218	1
0	23559	4221	1
0	23569	4222	2
0	23575	4223	3
0	23584	4224	3
0	23600	4226	1
0	23626	4229	2
0	23637	4230	3
0	23662	4234	1
0	23678	4237	1
0	23696	4241	1
0	23711	4246	1
0	23735	4253	1
0	23742	4254	1
0	23756	4256	1
0	23763	4257	1
0	23826	4268	1
0	23844	4271	1
0	23862	4276	1
0	23869	4277	1
0	23892	4280	1
0	23917	4283	1
0	23924	4284	2
0	23930	4285	2
0	23951	4289	1
0	23960	4290	2
0	23985	4293	3
0	23994	4294	4
0	24008	4296	1
0	24018	4297	1
0	24062	4303	1
0	24080	4305	1
0	24091	4306	1
0	24129	4313	1
0	24157	4316	1
0	24168	4317	2
0	24188	4320	4
0	24194	4321	2
0	24210	4323	1
0	24235	4329	1
0	24271	4337	1
0	24291	4342	1
0	24323	4346	1
0	24334	4347	2
0	24343	4348	2
0	24350	4349	1
0	24395	4357	1
0	24421	4360	1
0	24450	4366	1
0	24459	4368	1
0	24468	4370	1
0	24479	4373	1
0	24486	4374	1
0	24505	4377	1
0	24523	4380	1
0	24540	4385	1
0	24574	4389	1
0	24609	4399	1
0	24623	4402	1
0	24633	4403	1
0	24650	4408	1
0	24665	4413	1
0	24691	4421	1
0	24704	4425	1
0	24722	4428	1
0	24739	4430	1
0	24758	4434	1
0	24765	4435	1
0	24776	4438	1
0	24783	4439	1
0	24792	4441	1
0	24812	4446	1
0	24819	4447	1
0	24828	4449	1
0	24863	4459	1
0	24911	4468	1
0	24931	4471	3
0	24975	4477	1
0	24988	4480	1
0	25000	4481	1
0	25030	4485	1
0	25049	4487	1
0	25071	4490	1
0	25082	4492	1
0	25142	4508	1
0	25183	4515	1
0	25211	4522	1
0	25218	4523	1
0	25269	4535	1
0	25283	4536	1
0	25307	4540	1
0	25320	4543	1
0	25336	4547	1
0	25350	4549	1
0	25357	4550	1
0	25373	4553	1
0	25387	4556	1
0	25413	4560	1
0	25428	4565	1
0	25445	4568	1
0	25455	4569	2
0	25470	4571	1
0	25505	4578	1
0	25515	4579	2
0	25548	4586	1
0	25568	4590	1
0	25585	4593	1
0	25652	4606	1
0	25662	4607	2
0	25724	4616	1
0	25735	4617	2
0	25796	4631	1
0	25804	4632	1
0	25815	4633	2
0	25839	4636	1
0	25850	4637	1
0	25888	4644	1
0	25899	4645	2
0	25911	4646	1
0	25922	4647	2
0	25936	4648	1
0	25947	4649	2
0	25971	4652	1
0	25981	4653	1
0	25992	4655	1
0	26009	4658	1
0	26024	4661	4
0	26033	4662	4
0	26061	4669	1
0	26085	4671	1
0	26096	4672	2
0	26106	4673	2
0	26117	4674	1
0	26144	4679	1
0	26173	4686	1
0	26184	4689	1
0	26204	4695	1
0	26223	4698	1
0	26238	4703	1
0	26249	4704	1
0	26282	4709	1
0	26315	4714	1
0	26379	4727	1
0	26404	4731	1
0	26411	4732	1
0	26452	4740	1
0	26475	4745	1
0	26489	4747	1
0	26508	4750	1
0	26515	4751	1
0	26545	4757	1
0	26578	4765	1
0	26596	4767	1
0	26618	4770	1
0	26625	4771	1
0	26642	4776	1
0	26667	4779	3
0	26677	4780	4
0	26684	4781	4
0	26691	4782	4
0	26700	4783	4
0	26711	4784	4
0	26722	4785	4
0	26734	4786	1
0	26745	4788	1
0	26763	4792	1
0	26775	4795	3
0	26786	4798	1
0	26797	4800	1
0	26811	4801	1
0	26821	4802	2
0	26835	4803	1
0	26846	4804	2
0	26857	4805	1
0	26872	4808	1
0	26878	4809	2
0	26892	4812	3
0	26924	4819	1
0	26963	4826	1
0	26980	4828	1
0	26991	4829	1
0	27072	4843	1
0	27090	4847	1
0	27127	4852	1
0	27139	4854	1
0	27150	4856	1
0	27165	4859	3
0	27182	4861	1
0	27221	4867	1
0	27248	4872	1
0	27270	4876	1
0	27280	4877	2
0	27291	4878	1
0	27303	4880	1
0	27314	4881	2
0	27324	4882	2
0	27338	4885	3
0	27345	4886	1
0	27356	4887	1
0	27380	4891	1
0	27403	4895	1
0	27413	4896	1
0	27422	4897	1
0	27429	4898	1
0	27453	4901	1
0	27462	4902	2
0	27488	4905	3
0	27499	4906	2
0	27505	4907	3
0	27511	4908	3
0	27517	4909	4
0	27524	4910	1
0	27622	4928	1
0	27638	4932	1
0	27655	4935	1
0	27664	4936	2
0	27691	4939	2
0	27700	4940	2
0	27724	4944	1
0	27730	4945	2
0	27768	4955	1
0	27777	4956	2
0	27786	4958	1
0	27811	4963	1
0	27818	4964	1
0	27828	4965	1
0	27847	4968	1
0	27860	4969	1
0	27871	4970	2
0	27879	4971	3
0	27885	4972	3
0	27892	4973	1
0	27943	4981	1
0	27952	4983	1
0	27962	4984	1
0	27998	4992	1
0	28026	4997	1
1	2225	400	1
1	2227	400	0
1	2236	402	1
1	2236	402	0
1	2247	404	1
1	2253	405	0
1	2261	406	1
1	2263	406	0
1	2284	413	1
1	2284	413	0
1	2346	429	1
1	2346	429	0
1	2355	431	1
1	2355	431	0
1	2383	436	1
1	2383	436	0
1	2407	442	1
1	2407	442	0
1	2448	453	1
1	2448	453	0
1	2459	454	1
1	2461	454	0
1	2478	456	1
1	2478	456	0
1	2485	457	1
1	2495	459	0
1	2511	461	1
1	2511	461	0
1	2512	461	1
1	2520	462	0
1	2559	470	1
1	2559	470	0
1	2577	474	1
1	2577	474	0
1	2603	477	1
1	2603	477	0
1	2604	477	1
1	2616	478	0
1	2648	483	1
1	2648	483	0
1	2649	483	1
1	2660	484	0
1	2673	487	1
1	2673	487	0
1	2681	489	1
1	2685	490	0
1	2690	491	1
1	2692	491	0
1	2701	493	1
1	2701	493	0
1	2702	493	1
1	2712	494	0
1	2732	497	1
1	2732	497	0
1	2747	501	1
1	2747	501	0
1	2748	501	1
1	2754	502	0
1	2759	503	1
1	2761	503	0
1	2802	510	1
1	2802	510	0
1	2803	510	1
1	2814	511	0
1	2845	515	1
1	2845	515	0
1	2854	516	1
1	2856	516	0
1	2863	517	1
1	2864	517	2
1	2868	517	1
1	2875	518	2
1	2879	518	1
1	2890	519	0
1	2907	523	1
1	2907	523	0
1	2912	524	1
1	2914	524	0
1	2927	526	1
1	2927	526	0
1	2936	527	1
1	2941	527	0
1	2970	532	1
1	2970	532	0
1	3001	542	1
1	3001	542	0
1	3028	548	1
1	3028	548	0
1	3068	554	1
1	3068	554	0
1	3111	562	1
1	3111	562	0
1	3112	562	1
1	3121	563	0
1	3156	572	1
1	3156	572	0
1	3201	582	1
1	3201	582	0
1	3210	583	1
1	3212	583	0
1	3259	591	1
1	3259	591	0
1	3264	592	1
1	3267	592	0
1	3274	593	1
1	3275	593	2
1	3287	595	1
1	3298	596	0
1	3321	600	1
1	3321	600	0
1	3342	603	1
1	3342	603	0
1	3353	605	1
1	3353	605	0
1	3396	614	1
1	3396	614	0
1	3420	621	1
1	3420	621	0
1	3421	621	1
1	3428	622	0
1	3474	629	1
1	3474	629	0
1	3531	639	1
1	3531	639	0
1	3550	643	1
1	3550	643	0
1	3587	649	1
1	3587	649	0
1	3623	662	1
1	3623	662	0
1	3658	670	1
1	3658	670	0
1	3668	671	1
1	3670	671	0
1	3679	672	1
1	3681	672	0
1	3688	673	1
1	3689	673	2
1	3692	673	1
1	3702	674	0
1	3736	681	1
1	3736	681	0
1	3775	689	1
1	3775	689	0
1	3803	694	1
1	3803	694	0
1	3817	696	1
1	3817	696	0
1	3845	705	1
1	3845	705	0
1	3868	709	1
1	3868	709	0
1	3889	712	1
1	3889	712	0
1	3899	713	1
1	3901	713	0
1	3919	715	1
1	3919	715	0
1	3945	720	1
1	3945	720	0
1	3964	723	1
1	3964	723	0
1	4005	730	1
1	4005	730	0
1	4013	732	1
1	4014	732	2
1	4023	733	1
1	4024	733	2
1	4035	734	1
1	4044	735	2
1	4047	735	1
1	4056	736	2
1	4058	736	1
1	4071	737	0
1	4088	739	1
1	4088	739	0
1	4097	740	1
1	4100	740	0
1	4115	742	1
1	4115	742	0
1	4126	745	1
1	4126	745	0
1	4142	748	1
1	4142	748	0
1	4161	752	1
1	4161	752	0
1	4171	753	1
1	4173	753	0
1	4207	760	1
1	4207	760	0
1	4212	761	1
1	4216	761	0
1	4223	762	1
1	4227	762	0
1	4240	764	1
1	4240	764	0
1	4249	766	1
1	4249	766	0
1	4250	766	1
1	4256	767	0
1	4261	768	1
1	4263	768	0
1	4268	769	1
1	4270	769	0
1	4327	787	1
1	4327	787	0
1	4353	795	1
1	4353	795	0
1	4376	799	1
1	4376	799	0
1	4377	799	1
1	4382	800	2
1	4385	800	1
1	4392	801	2
1	4393	801	3
1	4398	801	2
1	4408	802	1
1	4413	803	2
1	4419	803	1
1	4429	804	0
1	4451	807	1
1	4451	807	0
1	4452	807	1
1	4464	808	0
1	4500	816	1
1	4500	816	0
1	4524	820	1
1	4524	820	0
1	4550	829	1
1	4550	829	0
1	4557	830	1
1	4559	830	0
1	4592	835	1
1	4592	835	0
1	4638	842	1
1	4638	842	0
1	4672	849	1
1	4672	849	0
1	4689	851	1
1	4689	851	0
1	4690	851	1
1	4697	852	2
1	4700	852	1
1	4710	853	0
1	4747	862	1
1	4747	862	0
1	4758	864	1
1	4758	864	0
1	4771	868	1
1	4771	868	0
1	4780	870	1
1	4780	870	0
1	4785	871	1
1	4787	871	0
1	4810	878	1
1	4810	878	0
1	4832	881	1
1	4832	881	0
1	4844	883	1
1	4844	883	0
1	4845	883	1
1	4857	884	0
1	4866	885	1
1	4869	885	0
1	4878	886	1
1	4897	888	0
1	4948	901	1
1	4948	901	0
1	4967	904	1
1	4967	904	0
1	4991	907	1
1	4991	907	0
1	5014	910	1
1	5014	910	0
1	5030	912	1
1	5030	912	0
1	5051	915	1
1	5051	915	0
1	5052	915	1
1	5058	916	0
1	5067	918	1
1	5067	918	0
1	5112	924	1
1	5112	924	0
1	5122	926	1
1	5126	927	0
1	5127	927	1
1	5133	928	0
1	5144	931	1
1	5144	931	0
1	5215	944	1
1	5215	944	0
1	5240	947	1
1	5240	947	0
1	5241	947	1
1	5250	948	2
1	5252	948	1
1	5259	949	2
1	5261	949	1
1	5266	950	2
1	5268	950	1
1	5273	951	2
1	5275	951	1
1	5283	952	0
1	5303	955	1
1	5303	955	0
1	5331	960	1
1	5331	960	0
1	5338	961	1
1	5340	961	0
1	5351	964	1
1	5351	964	0
1	5356	965	1
1	5358	965	0
1	5363	966	1
1	5365	966	0
1	5392	970	1
1	5392	970	0
1	5418	975	1
1	5418	975	0
1	5435	977	1
1	5435	977	0
1	5459	983	1
1	5459	983	0
1	5467	984	1
1	5481	986	0
1	5495	988	1
1	5495	988	0
1	5516	994	1
1	5516	994	0
1	5531	996	1
1	5531	996	0
1	5532	996	1
1	5537	997	2
1	5539	997	1
1	5548	998	0
1	5590	1004	1
1	5590	1004	0
1	5600	1005	1
1	5602	1005	0
1	5616	1007	1
1	5616	1007	0
1	5623	1008	1
1	5624	1008	2
1	5626	1008	1
1	5631	1009	2
1	5641	1011	1
1	5642	1011	2
1	5653	1012	1
1	5663	1013	0
1	5679	1015	1
1	5679	1015	0
1	5688	1016	1
1	5690	1016	0
1	5715	1020	1
1	5715	1020	0
1	5716	1020	1
1	5717	1020	2
1	5723	1021	1
1	5730	1022	0
1	5737	1023	1
1	5741	1023	0
1	5753	1025	1
1	5753	1025	0
1	5779	1030	1
1	5779	1030	0
1	5786	1031	1
1	5788	1031	0
1	5808	1036	1
1	5808	1036	0
1	5813	1037	1
1	5814	1037	2
1	5816	1037	1
1	5821	1038	2
1	5822	1038	3
1	5824	1038	2
1	5830	1039	1
1	5836	1040	0
1	5841	1041	1
1	5843	1041	0
1	5866	1045	1
1	5866	1045	0
1	5871	1046	1
1	5873	1046	0
1	5881	1048	1
1	5885	1049	0
1	5902	1055	1
1	5902	1055	0
1	5918	1058	1
1	5918	1058	0
1	5934	1061	1
1	5934	1061	0
1	5939	1062	1
1	5941	1062	0
1	5946	1063	1
1	5948	1063	0
1	5960	1065	1
1	5960	1065	0
1	5992	1070	1
1	5992	1070	0
1	6006	1073	1
1	6006	1073	0
1	6020	1075	1
1	6020	1075	0
1	6061	1084	1
1	6061	1084	0
1	6096	1094	1
1	6096	1094	0
1	6097	1094	1
1	6103	1095	0
1	6119	1098	1
1	6119	1098	0
1	6139	1103	1
1	6139	1103	0
1	6144	1104	1
1	6147	1104	0
1	6160	1106	1
1	6160	1106	0
1	6168	1107	1
1	6171	1107	0
1	6225	1117	1
1	6225	1117	0
1	6232	1118	1
1	6234	1118	0
1	6251	1121	1
1	6251	1121	0
1	6272	1125	1
1	6272	1125	0
1	6285	1128	1
1	6285	1128	0
1	6286	1128	1
1	6298	1129	0
1	6315	1131	1
1	6315	1131	0
1	6333	1133	1
1	6333	1133	0
1	6346	1136	1
1	6346	1136	0
1	6357	1139	1
1	6357	1139	0
1	6426	1151	1
1	6426	1151	0
1	6442	1154	1
1	6442	1154	0
1	6450	1155	1
1	6462	1157	0
1	6488	1160	1
1	6488	1160	0
1	6513	1164	1
1	6513	1164	0
1	6533	1169	1
1	6533	1169	0
1	6541	1170	1
1	6543	1170	0
1	6567	1176	1
1	6567	1176	0
1	6582	1181	1
1	6582	1181	0
1	6583	1181	1
1	6592	1182	0
1	6599	1183	1
1	6601	1183	0
1	6687	1202	1
1	6687	1202	0
1	6700	1204	1
1	6706	1205	0
1	6707	1205	1
1	6712	1206	2
1	6714	1206	1
1	6721	1207	0
1	6734	1209	1
1	6734	1209	0
1	6755	1212	1
1	6755	1212	0
1	6786	1220	1
1	6786	1220	0
1	6798	1222	1
1	6798	1222	0
1	6825	1225	1
1	6825	1225	0
1	6856	1230	1
1	6856	1230	0
1	6879	1237	1
1	6879	1237	0
1	6927	1248	1
1	6927	1248	0
1	6928	1248	1
1	6937	1249	2
1	6939	1249	1
1	6947	1250	0
1	6971	1257	1
1	6971	1257	0
1	6993	1261	1
1	6993	1261	0
1	7003	1262	1
1	7005	1262	0
1	7014	1263	1
1	7016	1263	0
1	7031	1267	1
1	7031	1267	0
1	7044	1271	1
1	7044	1271	0
1	7053	1272	1
1	7054	1272	2
1	7056	1272	1
1	7073	1275	0
1	7092	1277	1
1	7092	1277	0
1	7101	1278	1
1	7103	1278	0
1	7138	1283	1
1	7138	1283	0
1	7153	1285	1
1	7153	1285	0
1	7154	1285	1
1	7160	1286	0
1	7169	1288	1
1	7169	1288	0
1	7174	1289	1
1	7177	1289	0
1	7184	1290	1
1	7188	1290	0
1	7253	1305	1
1	7253	1305	0
1	7282	1314	1
1	7282	1314	0
1	7351	1327	1
1	7351	1327	0
1	7352	1327	1
1	7361	1328	0
1	7382	1332	1
1	7382	1332	0
1	7383	1332	1
1	7393	1333	0
1	7429	1338	1
1	7429	1338	0
1	7447	1340	1
1	7447	1340	0
1	7491	1347	1
1	7491	1347	0
1	7498	1348	1
1	7500	1348	0
1	7505	1349	1
1	7507	1349	0
1	7544	1362	1
1	7544	1362	0
1	7553	1363	1
1	7555	1363	0
1	7570	1365	1
1	7570	1365	0
1	7575	1366	1
1	7576	1366	2
1	7579	1366	1
1	7589	1367	0
1	7617	1376	1
1	7617	1376	0
1	7628	1379	1
1	7628	1379	0
1	7653	1382	1
1	7653	1382	0
1	7662	1383	1
1	7665	1383	0
1	7683	1385	1
1	7683	1385	0
1	7684	1385	1
1	7691	1386	2
1	7698	1388	1
1	7710	1389	0
1	7733	1392	1
1	7733	1392	0
1	7750	1397	1
1	7750	1397	0
1	7764	1399	1
1	7764	1399	0
1	7769	1400	1
1	7771	1400	0
1	7793	1406	1
1	7793	1406	0
1	7813	1411	1
1	7813	1411	0
1	7839	1419	1
1	7839	1419	0
1	7844	1420	1
1	7848	1420	0
1	7855	1421	1
1	7864	1422	2
1	7873	1423	1
1	7884	1424	0
1	7899	1426	1
1	7899	1426	0
1	7912	1430	1
1	7912	1430	0
1	7921	1432	1
1	7921	1432	0
1	7922	1432	1
1	7929	1433	0
1	7936	1434	1
1	7940	1434	0
1	7971	1439	1
1	7971	1439	0
1	7981	1440	1
1	7983	1440	0
1	8035	1452	1
1	8035	1452	0
1	8087	1460	1
1	8087	1460	0
1	8107	1463	1
1	8107	1463	0