version 3
run Experimentos-713-20260514-09:21:32-6992
attr configname Experimentos
attr datetime 20260514-09:21:32
attr datetimef 20260514-092132
attr experiment Experimentos
attr inifile TwoQueues.ini
attr iterationvars "$p=0.7, $q=0.2, $Y=30, $m=5"
attr iterationvarsd p=0.7/q=0.2/Y=30/m=5
attr iterationvarsf p=0.7,q=0.2,Y=30,m=5-
attr measurement "$p=0.7, $q=0.2, $Y=30, $m=5"
attr network TwoQueues
attr processid 6992
attr repetition 13
attr replication #13
attr resultdir results
attr runnumber 713
attr seedset 713
itervar Y 30
itervar m 5
itervar p 0.7
itervar q 0.2
config description "Barrido completo de parámetros Proyecto 12"
config **.source1.p 0.7
config **.source1.q 0.2
config **.source2.p 0.6
config **.source2.q 0.2
config **.serverWithMaintenance.Y 30
config **.serverWithMaintenance.m 5
config network TwoQueues
config cpu-time-limit 5000s
config sim-time-limit 5000s
config warmup-period 400s
config repeat 20
config output-scalar-file results/Experimentos-p=0.7,q=0.2,Y=30,m=5--#13.sca
config output-vector-file results/Experimentos-p=0.7,q=0.2,Y=30,m=5--#13.vec
config **.vector-recording true

vector 0 TwoQueues.serverWithMaintenance residenceTime2:vector ETV
attr recordingmode vector
attr source delay2
attr title "Residence Time Class 2"
vector 1 TwoQueues.queue2 queueLengthStats:vector ETV
attr recordingmode vector
attr source qlen
attr title "Average Queue Length"
vector 2 TwoQueues.queue1 queueLengthStats:vector ETV
attr recordingmode vector
attr source qlen
attr title "Average Queue Length"
vector 3 TwoQueues.server residenceTime1:vector ETV
attr recordingmode vector
attr source delay1
attr title "Residence Time Class 1"
vector 4 TwoQueues.server throughputStats1:vector ETV
attr recordingmode vector
attr source throughput1
attr title "Throughput Class 1"
0	2171	408	1
0	2204	417	1
0	2225	420	1
0	2243	424	1
0	2331	443	1
0	2365	450	1
0	2410	460	1
0	2425	462	1
0	2431	463	2
0	2454	467	1
0	2461	468	1
0	2508	479	1
0	2515	480	1
0	2545	486	1
0	2563	489	1
0	2574	492	1
0	2581	493	1
0	2597	495	1
0	2611	497	1
0	2621	498	1
0	2634	501	1
0	2671	513	1
0	2700	519	1
0	2740	529	1
0	2798	539	1
0	2811	543	1
0	2876	558	1
0	2930	566	1
0	2968	572	2
0	2993	575	1
0	3007	578	1
0	3020	581	1
0	3039	584	1
0	3046	585	1
0	3061	590	1
0	3085	596	1
0	3117	601	1
0	3156	610	1
0	3188	616	1
0	3219	624	1
0	3255	634	1
0	3266	635	2
0	3320	647	1
0	3331	650	1
0	3418	668	1
0	3444	671	1
0	3456	672	1
0	3486	676	1
0	3527	683	1
0	3553	687	1
0	3637	702	1
0	3654	704	1
0	3677	708	1
0	3701	714	1
0	3805	734	1
0	3815	735	2
0	3908	747	1
0	3926	749	1
0	4000	764	1
0	4018	768	1
0	4025	769	1
0	4051	777	1
0	4058	778	1
0	4073	782	1
0	4108	793	1
0	4127	800	1
0	4137	801	1
0	4160	804	1
0	4175	806	1
0	4181	807	2
0	4201	812	1
0	4211	813	2
0	4223	814	1
0	4236	815	2
0	4260	819	1
0	4276	822	1
0	4296	827	1
0	4305	829	1
0	4393	851	1
0	4481	863	1
0	4510	866	1
0	4546	871	1
0	4556	872	1
0	4565	874	1
0	4572	875	1
0	4595	879	1
0	4604	881	1
0	4627	885	1
0	4649	893	1
0	4687	898	1
0	4698	899	1
0	4708	900	1
0	4738	904	1
0	4758	907	1
0	4764	908	2
0	4854	933	1
0	4865	934	1
0	4873	935	2
0	4909	942	1
0	4919	943	2
0	4931	944	3
0	4943	945	1
0	4971	949	1
0	4980	951	1
0	4988	952	1
0	4994	953	2
0	5001	954	1
0	5037	961	1
0	5056	963	1
0	5116	973	1
0	5132	977	1
0	5148	980	1
0	5159	983	1
0	5202	992	1
0	5225	996	1
0	5232	997	1
0	5262	1002	1
0	5273	1004	1
0	5312	1010	3
0	5321	1011	2
0	5337	1014	1
0	5427	1029	1
0	5486	1042	1
0	5567	1054	1
0	5579	1056	1
0	5628	1067	1
0	5645	1070	1
0	5651	1071	2
0	5662	1073	1
0	5679	1075	1
0	5724	1085	1
0	5748	1088	1
0	5772	1093	1
0	5788	1096	1
0	5800	1098	1
0	5837	1103	1
0	5862	1109	1
0	5904	1119	1
0	5929	1125	1
0	5972	1139	1
0	5994	1145	1
0	6009	1150	1
0	6018	1152	1
0	6028	1154	1
0	6037	1155	2
0	6058	1158	1
0	6068	1159	2
0	6074	1160	2
0	6101	1166	6
0	6111	1167	4
0	6130	1170	1
0	6140	1171	1
0	6172	1178	1
0	6178	1179	2
0	6189	1182	1
0	6233	1194	1
0	6255	1198	1
0	6264	1199	2
0	6270	1200	3
0	6291	1203	1
0	6298	1204	1
0	6313	1209	1
0	6338	1214	1
0	6445	1230	1
0	6452	1231	1
0	6467	1236	1
0	6480	1239	1
0	6527	1251	1
0	6555	1256	1
0	6580	1259	1
0	6620	1266	1
0	6629	1267	2
0	6684	1276	1
0	6694	1277	1
0	6720	1285	1
0	6730	1286	1
0	6740	1287	1
0	6750	1288	2
0	6797	1294	5
0	6877	1308	1
0	6898	1316	1
0	6921	1321	1
0	6969	1329	1
0	6977	1330	1
0	6986	1331	2
0	7061	1341	1
0	7103	1351	1
0	7123	1356	1
0	7132	1358	1
0	7147	1362	1
0	7170	1367	1
0	7224	1376	1
0	7230	1377	2
0	7244	1379	1
0	7255	1382	1
0	7266	1384	1
0	7298	1395	1
0	7332	1402	1
0	7350	1407	1
0	7360	1408	1
0	7394	1416	1
0	7403	1417	2
0	7429	1424	1
0	7437	1425	1
0	7443	1426	2
0	7454	1429	1
0	7464	1430	1
0	7494	1434	1
0	7540	1441	1
0	7546	1442	2
0	7562	1445	1
0	7589	1451	1
0	7617	1462	1
0	7623	1463	2
0	7659	1471	1
0	7688	1476	1
0	7755	1485	1
0	7787	1490	1
0	7804	1492	1
0	7840	1499	1
0	7857	1505	1
0	7889	1513	1
0	7895	1514	2
0	7906	1515	1
0	7941	1524	1
0	7950	1525	2
0	8020	1543	1
0	8030	1544	1
0	8075	1554	1
0	8097	1559	1
0	8174	1578	1
0	8180	1579	2
0	8190	1580	1
0	8280	1598	1
0	8309	1603	1
0	8315	1604	2
0	8342	1608	1
0	8353	1609	1
0	8403	1615	6
0	8413	1616	4
0	8422	1617	4
0	8455	1622	1
0	8473	1624	1
0	8483	1625	1
0	8490	1626	1
0	8537	1636	1
0	8557	1642	1
0	8589	1646	1
0	8677	1662	1
0	8689	1663	2
0	8797	1678	1
0	8817	1680	1
0	8874	1688	1
0	8925	1695	1
0	8937	1697	1
0	8959	1702	1
0	8997	1712	1
0	9028	1720	1
0	9039	1723	1
0	9077	1728	1
0	9114	1733	1
0	9123	1735	1
0	9138	1740	1
0	9180	1755	1
0	9202	1761	1
0	9219	1763	1
0	9276	1774	1
0	9318	1780	1
0	9341	1788	1
0	9347	1789	2
0	9387	1798	1
0	9423	1807	1
0	9439	1810	1
0	9446	1811	1
0	9480	1819	1
0	9489	1820	2
0	9533	1830	1
0	9622	1854	1
0	9632	1855	1
0	9650	1858	1
0	9689	1865	1
0	9707	1869	1
0	9748	1877	1
0	9755	1878	1
0	9824	1887	1
0	9834	1888	2
0	9872	1896	1
0	9879	1897	2
0	9885	1898	2
0	9987	1918	1
0	9999	1920	1
0	10040	1928	1
0	10059	1932	1
0	10068	1933	2
0	10100	1943	1
0	10134	1950	1
0	10160	1954	1
0	10171	1955	1
0	10224	1967	1
0	10259	1972	1
0	10274	1976	1
0	10315	1983	1
0	10339	1986	1
0	10349	1987	1
0	10360	1988	1
0	10371	1989	1
0	10410	1995	1
0	10461	2007	1
0	10509	2016	1
0	10519	2017	1
0	10550	2025	1
0	10587	2031	1
0	10617	2035	1
0	10643	2038	1
0	10666	2043	1
0	10700	2051	1
0	10711	2052	1
0	10746	2059	1
0	10757	2060	1
0	10767	2061	1
0	10780	2065	1
0	10831	2077	1
0	10852	2082	1
0	10911	2092	1
0	10923	2093	1
0	10994	2106	1
0	11005	2107	1
0	11012	2108	2
0	11052	2114	7
0	11084	2120	1
0	11103	2122	1
0	11190	2137	1
0	11225	2143	1
0	11234	2144	2
0	11245	2145	1
0	11253	2146	2
0	11300	2157	1
0	11308	2158	1
0	11315	2159	2
0	11321	2160	2
0	11337	2163	1
0	11355	2167	1
0	11404	2175	1
0	11415	2176	1
0	11425	2177	1
0	11433	2178	1
0	11442	2179	2
0	11532	2197	1
0	11563	2203	1
0	11569	2204	2
0	11576	2205	1
0	11651	2225	1
0	11666	2230	1
0	11707	2237	1
0	11723	2240	1
0	11733	2241	1
0	11740	2242	1
0	11767	2248	1
0	11792	2254	6
0	11804	2255	1
0	11816	2257	1
0	11823	2258	1
0	11880	2269	1
0	11933	2279	1
0	11967	2283	1
0	11978	2284	2
0	11988	2285	2
0	11997	2286	2
0	12008	2288	1
0	12015	2289	1
0	12027	2292	1
0	12033	2293	2
0	12130	2319	1
0	12149	2326	1
0	12209	2341	1
0	12239	2347	1
0	12250	2348	2
0	12273	2353	1
0	12300	2358	1
0	12316	2361	1
0	12357	2366	1
0	12401	2377	1
0	12410	2379	1
0	12428	2384	1
0	12474	2391	1
0	12481	2392	1
0	12498	2394	1
0	12521	2397	1
0	12545	2403	5
0	12557	2404	6
0	12567	2405	2
0	12575	2406	3
0	12585	2408	1
0	12594	2409	2
0	12628	2414	1
0	12667	2423	1
0	12685	2425	1
0	12709	2428	1
0	12746	2433	1
0	12756	2434	1
0	12764	2435	1
0	12773	2436	2
0	12796	2440	1
0	12825	2446	1
0	12841	2449	1
0	12876	2456	1
0	12885	2457	2
0	12924	2469	1
0	12945	2472	1
0	12978	2480	1
0	13014	2493	1
0	13025	2496	1
0	13054	2502	1
0	13101	2508	1
0	13120	2510	1
0	13156	2519	1
0	13178	2525	1
0	13203	2528	1
0	13238	2534	7
0	13244	2535	3
0	13286	2546	1
0	13327	2559	1
0	13343	2563	1
0	13364	2565	1
0	13392	2569	1
0	13425	2578	1
0	13435	2579	1
0	13444	2580	1
0	13457	2584	1
0	13465	2585	1
0	13471	2586	2
0	13480	2588	1
0	13581	2617	1
0	13593	2618	1
0	13602	2619	2
0	13612	2620	1
0	13621	2621	1
0	13647	2628	1
0	13666	2631	1
0	13673	2632	1
0	13760	2647	1
0	13770	2648	1
0	13797	2656	1
0	13803	2657	2
0	13813	2658	1
0	13900	2675	1
0	13906	2676	2
0	13920	2679	1
0	13982	2689	1
0	14001	2691	1
0	14037	2701	1
0	14093	2710	1
0	14104	2711	1
0	14122	2713	1
0	14197	2726	1
0	14213	2728	1
0	14239	2731	1
0	14251	2733	1
0	14305	2745	1
0	14323	2749	1
0	14338	2754	1
0	14360	2758	1
0	14380	2760	1
0	14390	2761	2
0	14410	2765	1
0	14417	2766	1
0	14474	2782	1
0	14496	2788	1
0	14532	2797	1
0	14556	2800	1
0	14565	2801	2
0	14576	2803	1
0	14638	2814	1
0	14651	2815	1
0	14702	2823	1
0	14708	2824	2
0	14743	2829	1
0	14767	2836	1
0	14844	2854	1
0	14872	2858	1
0	14906	2865	1
0	14929	2870	1
0	14947	2873	1
0	14954	2874	1
0	14977	2878	1
0	15018	2890	1
0	15037	2894	1
0	15046	2895	2
0	15090	2902	1
0	15124	2909	1
0	15137	2913	1
0	15144	2914	1
0	15171	2920	1
0	15180	2922	1
0	15205	2927	1
0	15223	2930	1
0	15233	2931	1
0	15289	2939	1
0	15320	2943	1
0	15349	2949	1
0	15378	2956	1
0	15389	2958	1
0	15421	2965	1
0	15428	2966	1
0	15485	2982	1
0	15531	2991	1
0	15552	2994	1
0	15562	2995	2
0	15581	3001	7
0	15599	3006	1
0	15610	3007	1
0	15621	3008	1
0	15676	3021	1
0	15696	3023	1
0	15705	3024	2
0	15724	3026	1
0	15755	3030	1
0	15783	3034	1
0	15829	3041	1
0	15868	3047	1
0	15893	3053	1
0	15904	3054	1
0	15987	3071	1
0	16003	3073	1
0	16049	3082	1
0	16060	3083	1
0	16102	3090	1
0	16109	3091	1
0	16177	3105	1
0	16188	3107	1
0	16215	3113	1
0	16234	3117	1
0	16246	3118	1
0	16264	3120	1
0	16324	3131	1
0	16358	3139	1
0	16370	3140	1
0	16411	3146	1
0	16469	3157	1
0	16490	3161	1
0	16497	3162	1
0	16510	3166	1
0	16538	3172	1
0	16544	3173	2
0	16554	3174	1
0	16597	3182	1
0	16621	3186	1
0	16630	3187	2
0	16648	3189	1
0	16676	3198	1
0	16688	3200	1
0	16698	3201	1
0	16709	3203	1
0	16716	3204	1
0	16743	3215	1
0	16779	3223	1
0	16786	3224	1
0	16803	3230	1
0	16820	3235	1
0	16832	3237	1
0	16843	3240	1
0	16873	3244	1
0	16889	3248	1
0	16905	3251	1
0	16921	3254	1
0	16953	3259	1
0	16980	3262	1
0	17000	3265	1
0	17029	3271	5
0	17038	3272	6
0	17171	3301	1
0	17215	3307	1
0	17225	3308	1
0	17264	3320	1
0	17288	3326	1
0	17304	3329	1
0	17338	3339	1
0	17344	3340	2
0	17351	3341	1
0	17360	3343	1
0	17367	3344	1
0	17418	3354	1
0	17428	3355	2
0	17440	3356	1
0	17452	3357	2
0	17515	3372	1
0	17574	3385	1
0	17590	3387	1
0	17642	3399	1
0	17653	3401	1
0	17705	3410	1
0	17712	3411	2
0	17718	3412	2
0	17752	3418	1
0	17768	3422	1
0	17798	3431	1
0	17815	3433	1
0	17824	3435	1
0	17866	3441	5
0	17875	3442	4
0	17883	3443	5
0	17890	3444	5
0	17896	3445	6
0	17906	3446	3
0	17917	3447	2
0	17938	3453	1
0	17982	3461	1
0	18002	3467	1
0	18029	3470	1
0	18046	3472	1
0	18062	3476	1
0	18077	3481	1
0	18140	3491	1
0	18151	3492	2
0	18157	3493	2
0	18169	3494	3
0	18180	3495	1
0	18210	3499	1
0	18241	3506	1
0	18307	3520	1
0	18319	3521	1
0	18356	3527	1
0	18368	3528	1
0	18425	3536	1
0	18441	3538	1
0	18458	3544	1
0	18509	3558	1
0	18520	3559	1
0	18546	3565	6
0	18568	3570	1
0	18592	3575	1
0	18601	3576	2
0	18628	3581	1
0	18682	3593	1
0	18693	3596	1
0	18710	3602	1
0	18728	3606	1
0	18737	3608	1
0	18753	3612	1
0	18763	3613	2
0	18772	3614	2
0	18789	3619	1
0	18813	3626	1
0	18831	3630	1
0	18860	3636	1
0	18888	3641	1
0	18937	3650	1
0	18948	3651	2
0	18960	3652	2
0	19014	3664	1
0	19021	3665	1
0	19033	3667	1
0	19060	3673	1
0	19078	3676	1
0	19085	3677	1
0	19097	3678	1
0	19109	3679	2
0	19118	3680	3
0	19152	3686	8
0	19164	3687	8
0	19173	3688	2
0	19182	3690	1
0	19224	3697	1
0	19243	3699	1
0	19252	3700	2
0	19264	3702	1
0	19289	3706	1
0	19310	3709	1
0	19319	3711	1
0	19340	3714	1
0	19405	3723	1
0	19444	3736	1
0	19451	3737	1
0	19471	3742	1
0	19513	3749	1
0	19529	3751	1
0	19542	3755	1
0	19574	3760	1
0	19604	3765	1
0	19627	3769	1
0	19637	3770	1
0	19675	3779	1
0	19682	3780	1
0	19712	3785	1
0	19729	3787	1
0	19739	3788	2
0	19745	3789	2
0	19756	3792	1
0	19794	3802	1
0	19850	3811	1
0	19889	3818	1
0	19909	3822	1
0	19919	3823	1
0	19962	3831	1
0	19986	3839	1
0	19997	3840	1
0	20021	3844	1
0	20106	3864	1
0	20115	3866	1
0	20201	3883	1
0	20242	3892	1
0	20258	3895	1
0	20282	3902	1
0	20302	3906	1
0	20327	3911	1
0	20343	3914	1
0	20373	3919	1
0	20412	3927	1
0	20425	3930	1
0	20450	3936	1
0	20484	3942	1
0	20503	3945	1
0	20516	3949	1
0	20523	3950	1
0	20538	3955	1
0	20548	3956	1
0	20585	3962	1
0	20660	3976	1
0	20681	3982	2
0	20690	3983	3
0	20729	3990	1
0	20738	3992	1
0	20776	4005	1
0	20792	4008	1
0	20804	4009	1
0	20816	4010	1
0	20859	4019	1
0	20952	4033	1
0	20984	4037	1
0	21099	4057	1
0	21108	4058	2
0	21185	4079	1
0	21196	4080	1
0	21228	4086	1
0	21245	4088	1
0	21280	4097	1
0	21301	4100	1
0	21341	4109	1
0	21351	4110	2
0	21369	4115	1
0	21422	4123	1
0	21490	4132	1
0	21520	4138	1
0	21550	4143	1
0	21585	4149	1
0	21598	4150	1
0	21608	4151	2
0	21618	4152	1
0	21655	4161	1
0	21673	4163	1
0	21692	4166	1
0	21710	4170	1
0	21733	4174	1
0	21748	4178	1
0	21787	4186	1
0	21822	4196	1
0	21843	4201	1
0	21852	4202	2
0	21861	4203	1
0	21966	4233	1
0	21976	4234	1
0	22022	4245	1
0	22032	4246	1
0	22054	4252	1
0	22082	4257	1
0	22107	4260	1
0	22129	4264	1
0	22138	4265	2
0	22161	4268	1
0	22181	4272	1
0	22196	4275	1
0	22202	4276	2
0	22211	4278	1
0	22224	4282	1
0	22238	4285	1
0	22274	4291	1
0	22328	4305	1
0	22407	4326	1
0	22457	4338	1
0	22464	4339	1
0	22539	4356	1
0	22545	4357	2
0	22569	4361	1
0	22579	4362	2
0	22587	4363	2
0	22611	4370	1
0	22618	4371	1
0	22643	4375	1
0	22671	4378	1
0	22683	4379	2
0	22693	4380	2
0	22724	4384	1
0	22787	4397	1
0	22832	4404	1
0	22843	4405	1
0	22853	4406	1
0	22860	4407	1
0	22917	4417	1
0	22935	4422	1
0	22951	4425	1
0	22998	4432	1
0	23010	4433	1
0	23033	4436	1
0	23043	4437	1
0	23073	4446	1
0	23092	4449	1
0	23110	4451	1
0	23122	4453	1
0	23171	4462	1
0	23246	4487	1
0	23256	4488	1
0	23293	4496	1
0	23304	4497	2
0	23363	4509	1
0	23387	4515	1
0	23398	4518	1
0	23405	4519	1
0	23425	4523	1
0	23431	4524	2
0	23438	4525	3
0	23444	4526	2
0	23451	4527	1
0	23458	4528	1
0	23473	4533	1
0	23499	4541	1
0	23506	4542	1
0	23513	4543	1
0	23523	4545	1
0	23529	4546	2
0	23549	4551	1
0	23568	4554	1
0	23592	4560	1
0	23614	4565	1
0	23648	4571	1
0	23701	4578	1
0	23727	4581	1
0	23793	4592	1
0	23851	4606	1
0	23910	4620	1
0	23922	4622	1
0	23933	4625	1
0	23940	4626	1
0	23949	4628	1
0	24015	4642	1
0	24108	4659	1
0	24136	4663	1
0	24158	4670	1
0	24216	4685	1
0	24226	4686	2
0	24235	4687	2
0	24300	4696	1
0	24378	4710	1
0	24418	4716	1
0	24436	4719	1
0	24456	4724	1
0	24463	4725	1
0	24470	4726	1
0	24480	4727	1
0	24527	4736	1
0	24586	4754	1
0	24615	4761	1
0	24631	4764	1
0	24646	4766	1
0	24652	4767	2
0	24670	4769	1
0	24699	4773	1
0	24775	4791	1
0	24824	4803	1
0	24848	4809	5
0	24854	4810	2
0	24863	4812	1
0	24890	4817	1
0	24929	4825	1
0	24936	4826	1
0	24949	4829	1
0	24970	4833	1
0	24980	4835	1
0	24986	4836	2
0	25009	4840	1
0	25018	4842	1
0	25027	4844	1
0	25075	4853	1
0	25092	4856	1
0	25098	4857	2
0	25106	4858	1
0	25112	4859	2
0	25148	4864	1
0	25260	4888	1
0	25278	4892	1
0	25301	4896	1
0	25322	4901	1
0	25329	4902	2
0	25335	4903	2
0	25345	4905	1
0	25354	4906	2
0	25450	4922	1
0	25466	4926	1
0	25486	4931	1
0	25514	4938	1
0	25526	4939	2
0	25547	4942	1
0	25605	4955	1
0	25623	4959	1
0	25652	4966	1
0	25694	4972	1
0	25714	4975	1
0	25731	4977	1
0	25752	4983	1
0	25758	4984	2
0	25780	4990	1
0	25797	4996	1
1	2167	407	1
1	2167	407	0
1	2200	416	1
1	2200	416	0
1	2219	419	1
1	2219	419	0
1	2237	423	1
1	2237	423	0
1	2325	442	1
1	2325	442	0
1	2356	449	1
1	2356	449	0
1	2406	459	1
1	2406	459	0
1	2418	461	1
1	2418	461	0
1	2419	461	1
1	2427	462	0
1	2448	466	1
1	2448	466	0
1	2455	467	1
1	2457	467	0
1	2504	478	1
1	2504	478	0
1	2509	479	1
1	2511	479	0
1	2538	485	1
1	2538	485	0
1	2559	488	1
1	2559	488	0
1	2570	491	1
1	2570	491	0
1	2575	492	1
1	2577	492	0
1	2590	494	1
1	2590	494	0
1	2605	496	1
1	2605	496	0
1	2613	497	1
1	2615	497	0
1	2628	500	1
1	2628	500	0
1	2667	512	1
1	2667	512	0
1	2693	518	1
1	2693	518	0
1	2733	528	1
1	2733	528	0
1	2794	538	1
1	2794	538	0
1	2807	542	1
1	2807	542	0
1	2870	557	1
1	2870	557	0
1	2923	565	1
1	2923	565	0
1	2957	570	1
1	2961	571	0
1	2986	574	1
1	2986	574	0
1	3003	577	1
1	3003	577	0
1	3014	580	1
1	3014	580	0
1	3035	583	1
1	3035	583	0
1	3040	584	1
1	3042	584	0
1	3057	589	1
1	3057	589	0
1	3077	595	1
1	3077	595	0
1	3107	600	1
1	3107	600	0
1	3150	609	1
1	3150	609	0
1	3182	615	1
1	3182	615	0
1	3213	623	1
1	3213	623	0
1	3250	633	1
1	3250	633	0
1	3251	633	1
1	3260	634	0
1	3316	646	1
1	3316	646	0
1	3327	649	1
1	3327	649	0
1	3408	667	1
1	3408	667	0
1	3437	670	1
1	3437	670	0
1	3446	671	1
1	3449	671	0
1	3479	675	1
1	3479	675	0
1	3521	682	1
1	3521	682	0
1	3544	686	1
1	3544	686	0
1	3630	701	1
1	3630	701	0
1	3648	703	1
1	3648	703	0
1	3671	707	1
1	3671	707	0
1	3695	713	1
1	3695	713	0
1	3797	733	1
1	3797	733	0
1	3798	733	1
1	3808	734	0
1	3901	746	1
1	3901	746	0
1	3919	748	1
1	3919	748	0
1	3996	763	1
1	3996	763	0
1	4014	767	1
1	4014	767	0
1	4019	768	1
1	4021	768	0
1	4047	776	1
1	4047	776	0
1	4052	777	1
1	4054	777	0
1	4067	781	1
1	4067	781	0
1	4104	792	1
1	4104	792	0
1	4123	799	1
1	4123	799	0
1	4128	800	1
1	4131	800	0
1	4154	803	1
1	4154	803	0
1	4168	805	1
1	4168	805	0
1	4169	805	1
1	4177	806	0
1	4192	811	1
1	4192	811	0
1	4193	811	1
1	4204	812	0
1	4213	813	1
1	4214	813	2
1	4216	813	1
1	4229	814	0
1	4256	818	1
1	4256	818	0
1	4270	821	1
1	4270	821	0
1	4292	826	1
1	4292	826	0
1	4301	828	1
1	4301	828	0
1	4386	850	1
1	4386	850	0
1	4473	862	1
1	4473	862	0
1	4503	865	1
1	4503	865	0
1	4539	870	1
1	4539	870	0
1	4548	871	1
1	4550	871	0
1	4561	873	1
1	4561	873	0
1	4566	874	1
1	4568	874	0
1	4589	878	1
1	4589	878	0
1	4600	880	1
1	4600	880	0
1	4621	884	1
1	4621	884	0
1	4645	892	1
1	4645	892	0
1	4680	897	1
1	4680	897	0
1	4689	898	1
1	4691	898	0
1	4700	899	1
1	4702	899	0
1	4731	903	1
1	4731	903	0
1	4753	906	1
1	4753	906	0
1	4754	906	1
1	4760	907	0
1	4850	932	1
1	4850	932	0
1	4855	933	1
1	4856	933	2
1	4859	933	1
1	4869	934	0
1	4899	941	1
1	4899	941	0
1	4900	941	1
1	4901	941	2
1	4912	942	1
1	4924	943	0
1	4933	944	1
1	4936	944	0
1	4965	948	1
1	4965	948	0
1	4976	950	1
1	4976	950	0
1	4981	951	1
1	4982	951	2
1	4984	951	1
1	4990	952	0
1	4995	953	1
1	4997	953	0
1	5031	960	1
1	5031	960	0
1	5049	962	1
1	5049	962	0
1	5109	972	1
1	5109	972	0
1	5128	976	1
1	5128	976	0
1	5142	979	1
1	5142	979	0
1	5155	982	1
1	5155	982	0
1	5198	991	1
1	5198	991	0
1	5219	995	1
1	5219	995	0
1	5226	996	1
1	5228	996	0
1	5256	1001	1
1	5256	1001	0
1	5267	1003	1
1	5267	1003	0
1	5287	1007	1
1	5304	1009	0
1	5305	1009	1
1	5315	1010	0
1	5333	1013	1
1	5333	1013	0
1	5421	1028	1
1	5421	1028	0
1	5479	1041	1
1	5479	1041	0
1	5561	1053	1
1	5561	1053	0
1	5572	1055	1
1	5572	1055	0
1	5624	1066	1
1	5624	1066	0
1	5638	1069	1
1	5638	1069	0
1	5639	1069	1
1	5647	1070	0
1	5656	1072	1
1	5656	1072	0
1	5673	1074	1
1	5673	1074	0
1	5720	1084	1
1	5720	1084	0
1	5741	1087	1
1	5741	1087	0
1	5766	1092	1
1	5766	1092	0
1	5782	1095	1
1	5782	1095	0
1	5796	1097	1
1	5796	1097	0
1	5829	1102	1
1	5829	1102	0
1	5858	1108	1
1	5858	1108	0
1	5897	1118	1
1	5897	1118	0
1	5923	1124	1
1	5923	1124	0
1	5968	1138	1
1	5968	1138	0
1	5990	1144	1
1	5990	1144	0
1	6005	1149	1
1	6005	1149	0
1	6014	1151	1
1	6014	1151	0
1	6023	1153	1
1	6023	1153	0
1	6024	1153	1
1	6031	1154	0
1	6049	1157	1
1	6049	1157	0
1	6050	1157	1
1	6060	1158	2
1	6062	1158	1
1	6070	1159	0
1	6075	1160	1
1	6088	1163	2
1	6094	1165	1
1	6104	1166	0
1	6126	1169	1
1	6126	1169	0
1	6131	1170	1
1	6134	1170	0
1	6167	1177	1
1	6167	1177	0
1	6168	1177	1
1	6174	1178	0
1	6185	1181	1
1	6185	1181	0
1	6229	1193	1
1	6229	1193	0
1	6247	1197	1
1	6247	1197	0
1	6248	1197	1
1	6249	1197	2
1	6258	1198	1
1	6266	1199	0
1	6285	1202	1
1	6285	1202	0
1	6292	1203	1
1	6294	1203	0
1	6309	1208	1
1	6309	1208	0
1	6334	1213	1
1	6334	1213	0
1	6441	1229	1
1	6441	1229	0
1	6446	1230	1
1	6448	1230	0
1	6463	1235	1
1	6463	1235	0
1	6474	1238	1
1	6474	1238	0
1	6521	1250	1
1	6521	1250	0
1	6546	1255	1
1	6546	1255	0
1	6573	1258	1
1	6573	1258	0
1	6612	1265	1
1	6612	1265	0
1	6613	1265	1
1	6623	1266	0
1	6678	1275	1
1	6678	1275	0
1	6686	1276	1
1	6688	1276	0
1	6716	1284	1
1	6716	1284	0
1	6721	1285	1
1	6724	1285	0
1	6731	1286	1
1	6732	1286	2
1	6736	1286	1
1	6744	1287	0
1	6761	1289	1
1	6788	1293	0
1	6873	1307	1
1	6873	1307	0
1	6894	1315	1
1	6894	1315	0
1	6914	1320	1
1	6914	1320	0
1	6965	1328	1
1	6965	1328	0
1	6970	1329	1
1	6971	1329	2
1	6973	1329	1
1	6980	1330	0
1	7054	1340	1
1	7054	1340	0
1	7099	1350	1
1	7099	1350	0
1	7119	1355	1
1	7119	1355	0
1	7128	1357	1
1	7128	1357	0
1	7141	1361	1
1	7141	1361	0
1	7164	1366	1
1	7164	1366	0
1	7217	1375	1
1	7217	1375	0
1	7218	1375	1
1	7226	1376	0
1	7238	1378	1
1	7238	1378	0
1	7251	1381	1
1	7251	1381	0
1	7260	1383	1
1	7260	1383	0
1	7292	1394	1
1	7292	1394	0
1	7326	1401	1
1	7326	1401	0
1	7346	1406	1
1	7346	1406	0
1	7351	1407	1
1	7354	1407	0
1	7389	1415	1
1	7389	1415	0
1	7390	1415	1
1	7397	1416	0
1	7425	1423	1
1	7425	1423	0
1	7430	1424	1
1	7431	1424	2
1	7433	1424	1
1	7439	1425	0
1	7450	1428	1
1	7450	1428	0
1	7455	1429	1
1	7458	1429	0
1	7488	1433	1
1	7488	1433	0
1	7533	1440	1
1	7533	1440	0
1	7534	1440	1
1	7542	1441	0
1	7556	1444	1
1	7556	1444	0
1	7585	1450	1
1	7585	1450	0
1	7612	1461	1
1	7612	1461	0
1	7613	1461	1
1	7619	1462	0
1	7655	1470	1
1	7655	1470	0
1	7678	1475	1
1	7678	1475	0
1	7747	1484	1
1	7747	1484	0
1	7783	1489	1
1	7783	1489	0
1	7796	1491	1
1	7796	1491	0
1	7836	1498	1
1	7836	1498	0
1	7853	1504	1
1	7853	1504	0
1	7882	1512	1
1	7882	1512	0
1	7883	1512	1
1	7891	1513	0
1	7896	1514	1
1	7900	1514	0
1	7936	1523	1
1	7936	1523	0
1	7937	1523	1
1	7944	1524	0
1	8013	1542	1
1	8013	1542	0
1	8022	1543	1
1	8024	1543	0
1	8071	1553	1
1	8071	1553	0
1	8091	1558	1
1	8091	1558	0
1	8169	1577	1
1	8169	1577	0
1	8170	1577	1
1	8176	1578	0
1	8181	1579	1
1	8184	1579	0
1	8273	1597	1
1	8273	1597	0
1	8304	1602	1
1	8304	1602	0
1	8305	1602	1
1	8311	1603	0
1	8334	1607	1
1	8334	1607	0
1	8344	1608	1
1	8346	1608	0
1	8355	1609	1
1	8380	1612	2
1	8388	1613	3
1	8396	1614	2
1	8406	1615	1
1	8416	1616	0
1	8446	1621	1
1	8446	1621	0
1	8465	1623	1
1	8465	1623	0
1	8475	1624	1
1	8477	1624	0
1	8484	1625	1
1	8486	1625	0
1	8531	1635	1
1	8531	1635	0
1	8553	1641	1
1	8553	1641	0
1	8582	1645	1
1	8582	1645	0
1	8666	1661	1
1	8666	1661	0
1	8667	1661	1
1	8682	1662	0
1	8790	1677	1
1	8790	1677	0
1	8809	1679	1
1	8809	1679	0
1	8866	1687	1
1	8866	1687	0
1	8917	1694	1
1	8917	1694	0
1	8933	1696	1
1	8933	1696	0
1	8953	1701	1
1	8953	1701	0
1	8991	1711	1
1	8991	1711	0
1	9024	1719	1
1	9024	1719	0
1	9035	1722	1
1	9035	1722	0
1	9069	1727	1
1	9069	1727	0
1	9108	1732	1
1	9108	1732	0
1	9119	1734	1
1	9119	1734	0
1	9134	1739	1
1	9134	1739	0
1	9174	1754	1
1	9174	1754	0
1	9196	1760	1
1	9196	1760	0
1	9213	1762	1
1	9213	1762	0
1	9270	1773	1
1	9270	1773	0
1	9312	1779	1
1	9312	1779	0
1	9336	1787	1
1	9336	1787	0
1	9337	1787	1
1	9343	1788	0
1	9381	1797	1
1	9381	1797	0
1	9419	1806	1
1	9419	1806	0
1	9433	1809	1
1	9433	1809	0
1	9440	1810	1
1	9442	1810	0
1	9473	1818	1
1	9473	1818	0
1	9474	1818	1
1	9483	1819	0
1	9526	1829	1
1	9526	1829	0
1	9618	1853	1
1	9618	1853	0
1	9623	1854	1
1	9626	1854	0
1	9644	1857	1
1	9644	1857	0
1	9685	1864	1
1	9685	1864	0
1	9703	1868	1
1	9703	1868	0
1	9742	1876	1
1	9742	1876	0
1	9749	1877	1
1	9751	1877	0
1	9813	1886	1
1	9813	1886	0
1	9814	1886	1
1	9827	1887	0
1	9867	1895	1
1	9867	1895	0
1	9868	1895	1
1	9873	1896	2
1	9875	1896	1
1	9881	1897	0
1	9981	1917	1
1	9981	1917	0
1	9995	1919	1
1	9995	1919	0
1	10036	1927	1
1	10036	1927	0
1	10054	1931	1
1	10054	1931	0
1	10055	1931	1
1	10062	1932	0
1	10096	1942	1
1	10096	1942	0
1	10130	1949	1
1	10130	1949	0
1	10151	1953	1
1	10151	1953	0
1	10162	1954	1
1	10164	1954	0
1	10220	1966	1
1	10220	1966	0
1	10253	1971	1
1	10253	1971	0
1	10268	1975	1
1	10268	1975	0
1	10307	1982	1
1	10307	1982	0
1	10331	1985	1
1	10331	1985	0
1	10341	1986	1
1	10343	1986	0
1	10350	1987	1
1	10354	1987	0
1	10361	1988	1
1	10365	1988	0
1	10406	1994	1
1	10406	1994	0
1	10455	2006	1
1	10455	2006	0
1	10502	2015	1
1	10502	2015	0
1	10511	2016	1
1	10513	2016	0
1	10546	2024	1
1	10546	2024	0
1	10580	2030	1
1	10580	2030	0
1	10610	2034	1
1	10610	2034	0
1	10635	2037	1
1	10635	2037	0
1	10662	2042	1
1	10662	2042	0
1	10693	2050	1
1	10693	2050	0
1	10702	2051	1
1	10704	2051	0
1	10739	2058	1
1	10739	2058	0
1	10748	2059	1
1	10750	2059	0
1	10759	2060	1
1	10761	2060	0
1	10776	2064	1
1	10776	2064	0
1	10823	2076	1
1	10823	2076	0
1	10845	2081	1
1	10845	2081	0
1	10904	2091	1
1	10904	2091	0
1	10913	2092	1
1	10916	2092	0
1	10987	2105	1
1	10987	2105	0
1	10996	2106	1
1	10997	2106	2
1	10999	2106	1
1	11006	2107	2
1	11008	2107	1
1	11043	2113	0
1	11077	2119	1
1	11077	2119	0
1	11095	2121	1
1	11095	2121	0
1	11183	2136	1
1	11183	2136	0
1	11218	2142	1
1	11218	2142	0
1	11219	2142	1
1	11228	2143	0
1	11235	2144	1
1	11236	2144	2
1	11239	2144	1
1	11249	2145	0
1	11296	2156	1
1	11296	2156	0
1	11301	2157	1
1	11302	2157	2
1	11304	2157	1
1	11309	2158	2
1	11311	2158	1
1	11317	2159	0
1	11331	2162	1
1	11331	2162	0
1	11351	2166	1
1	11351	2166	0
1	11397	2174	1
1	11397	2174	0
1	11406	2175	1
1	11408	2175	0
1	11417	2176	1
1	11419	2176	0
1	11426	2177	1
1	11427	2177	2
1	11429	2177	1
1	11436	2178	0
1	11525	2196	1
1	11525	2196	0
1	11556	2202	1
1	11556	2202	0
1	11557	2202	1
1	11565	2203	0
1	11570	2204	1
1	11572	2204	0
1	11647	2224	1
1	11647	2224	0
1	11662	2229	1
1	11662	2229	0
1	11700	2236	1
1	11700	2236	0
1	11717	2239	1
1	11717	2239	0
1	11725	2240	1
1	11727	2240	0
1	11734	2241	1
1	11736	2241	0
1	11763	2247	1
1	11763	2247	0
1	11768	2248	1
1	11785	2253	0
1	11794	2254	1
1	11797	2254	0
1	11812	2256	1
1	11812	2256	0
1	11817	2257	1
1	11819	2257	0
1	11876	2268	1
1	11876	2268	0
1	11926	2278	1
1	11926	2278	0
1	11959	2282	1
1	11959	2282	0
1	11960	2282	1
1	11969	2283	2
1	11971	2283	1
1	11980	2284	2
1	11982	2284	1
1	11991	2285	0
1	12004	2287	1
1	12004	2287	0
1	12009	2288	1
1	12011	2288	0
1	12022	2291	1
1	12022	2291	0
1	12023	2291	1
1	12029	2292	0
1	12126	2318	1
1	12126	2318	0
1	12145	2325	1
1	12145	2325	0
1	12205	2340	1
1	12205	2340	0
1	12230	2346	1
1	12230	2346	0
1	12231	2346	1
1	12243	2347	0
1	12269	2352	1
1	12269	2352	0
1	12294	2357	1
1	12294	2357	0
1	12310	2360	1
1	12310	2360	0
1	12349	2365	1
1	12349	2365	0
1	12397	2376	1
1	12397	2376	0
1	12406	2378	1
1	12406	2378	0
1	12421	2383	1
1	12421	2383	0
1	12468	2390	1
1	12468	2390	0
1	12475	2391	1
1	12477	2391	0
1	12489	2393	1
1	12489	2393	0
1	12515	2396	1
1	12515	2396	0
1	12525	2398	1
1	12526	2398	2
1	12539	2402	1
1	12546	2403	2
1	12547	2403	3
1	12551	2403	2
1	12561	2404	1
1	12571	2405	0
1	12580	2407	1
1	12580	2407	0
1	12581	2407	1
1	12588	2408	0
1	12621	2413	1
1	12621	2413	0
1	12660	2422	1
1	12660	2422	0
1	12677	2424	1
1	12677	2424	0
1	12703	2427	1
1	12703	2427	0
1	12738	2432	1
1	12738	2432	0
1	12748	2433	1
1	12750	2433	0
1	12757	2434	1
1	12758	2434	2
1	12760	2434	1
1	12767	2435	0
1	12788	2439	1
1	12788	2439	0
1	12819	2445	1
1	12819	2445	0
1	12832	2448	1
1	12832	2448	0
1	12871	2455	1
1	12871	2455	0
1	12872	2455	1
1	12879	2456	0
1	12917	2468	1
1	12917	2468	0
1	12938	2471	1
1	12938	2471	0
1	12974	2479	1
1	12974	2479	0
1	13010	2492	1
1	13010	2492	0
1	13021	2495	1
1	13021	2495	0
1	13048	2501	1
1	13048	2501	0
1	13094	2507	1
1	13094	2507	0
1	13113	2509	1
1	13113	2509	0
1	13152	2518	1
1	13152	2518	0
1	13172	2524	1
1	13172	2524	0
1	13195	2527	1
1	13195	2527	0
1	13196	2527	1
1	13230	2532	2
1	13234	2533	1
1	13240	2534	0
1	13282	2545	1
1	13282	2545	0
1	13321	2558	1
1	13321	2558	0
1	13336	2562	1
1	13336	2562	0
1	13357	2564	1
1	13357	2564	0
1	13386	2568	1
1	13386	2568	0
1	13419	2577	1
1	13419	2577	0
1	13426	2578	1
1	13429	2578	0
1	13436	2579	1
1	13440	2579	0
1	13453	2583	1
1	13453	2583	0
1	13458	2584	1
1	13459	2584	2
1	13461	2584	1
1	13467	2585	0
1	13476	2587	1
1	13476	2587	0
1	13574	2616	1
1	13574	2616	0
1	13583	2617	1
1	13584	2617	2
1	13586	2617	1
1	13596	2618	0
1	13603	2619	1
1	13606	2619	0
1	13613	2620	1
1	13617	2620	0
1	13641	2627	1
1	13641	2627	0
1	13660	2630	1
1	13660	2630	0
1	13667	2631	1
1	13669	2631	0
1	13754	2646	1
1	13754	2646	0
1	13762	2647	1
1	13764	2647	0
1	13792	2655	1
1	13792	2655	0
1	13793	2655	1
1	13799	2656	0
1	13804	2657	1
1	13807	2657	0
1	13893	2674	1
1	13893	2674	0
1	13894	2674	1
1	13902	2675	0
1	13913	2678	1
1	13913	2678	0
1	13974	2688	1
1	13974	2688	0
1	13993	2690	1
1	13993	2690	0
1	14033	2700	1
1	14033	2700	0
1	14086	2709	1
1	14086	2709	0
1	14095	2710	1
1	14097	2710	0
1	14115	2712	1
1	14115	2712	0
1	14193	2725	1
1	14193	2725	0
1	14205	2727	1
1	14205	2727	0
1	14232	2730	1
1	14232	2730	0
1	14247	2732	1
1	14247	2732	0
1	14301	2744	1
1	14301	2744	0
1	14319	2748	1
1	14319	2748	0
1	14334	2753	1
1	14334	2753	0
1	14351	2757	1
1	14351	2757	0
1	14372	2759	1
1	14372	2759	0
1	14373	2759	1
1	14383	2760	0
1	14406	2764	1
1	14406	2764	0
1	14411	2765	1
1	14413	2765	0
1	14470	2781	1
1	14470	2781	0
1	14492	2787	1
1	14492	2787	0
1	14525	2796	1
1	14525	2796	0
1	14549	2799	1
1	14549	2799	0
1	14550	2799	1
1	14559	2800	0
1	14572	2802	1
1	14572	2802	0
1	14630	2813	1
1	14630	2813	0
1	14640	2814	1
1	14644	2814	0
1	14697	2822	1
1	14697	2822	0
1	14698	2822	1
1	14704	2823	0
1	14737	2828	1
1	14737	2828	0
1	14763	2835	1
1	14763	2835	0
1	14840	2853	1
1	14840	2853	0
1	14866	2857	1
1	14866	2857	0
1	14902	2864	1
1	14902	2864	0
1	14922	2869	1
1	14922	2869	0
1	14943	2872	1
1	14943	2872	0
1	14948	2873	1
1	14950	2873	0
1	14973	2877	1
1	14973	2877	0
1	15012	2889	1
1	15012	2889	0
1	15030	2893	1
1	15030	2893	0
1	15031	2893	1
1	15040	2894	0
1	15084	2901	1
1	15084	2901	0
1	15120	2908	1
1	15120	2908	0
1	15133	2912	1
1	15133	2912	0
1	15138	2913	1
1	15140	2913	0
1	15167	2919	1
1	15167	2919	0
1	15176	2921	1
1	15176	2921	0
1	15199	2926	1
1	15199	2926	0
1	15217	2929	1
1	15217	2929	0
1	15225	2930	1
1	15227	2930	0
1	15282	2938	1
1	15282	2938	0
1	15313	2942	1
1	15313	2942	0
1	15343	2948	1
1	15343	2948	0
1	15372	2955	1
1	15372	2955	0
1	15383	2957	1
1	15383	2957	0
1	15417	2964	1
1	15417	2964	0
1	15422	2965	1
1	15424	2965	0
1	15481	2981	1
1	15481	2981	0
1	15524	2990	1
1	15524	2990	0
1	15545	2993	1
1	15545	2993	0
1	15546	2993	1
1	15554	2994	2
1	15556	2994	1
1	15575	3000	0
1	15595	3005	1
1	15595	3005	0
1	15600	3006	1
1	15604	3006	0
1	15611	3007	1
1	15615	3007	0
1	15668	3020	1
1	15668	3020	0
1	15687	3022	1
1	15687	3022	0
1	15688	3022	1
1	15699	3023	0
1	15714	3025	1
1	15714	3025	0
1	15748	3029	1
1	15748	3029	0
1	15774	3033	1
1	15774	3033	0
1	15819	3040	1
1	15819	3040	0
1	15862	3046	1
1	15862	3046	0
1	15884	3052	1
1	15884	3052	0
1	15895	3053	1
1	15897	3053	0
1	15980	3070	1
1	15980	3070	0
1	15997	3072	1
1	15997	3072	0
1	16042	3081	1
1	16042	3081	0