version 3
run Experimentos-584-20260514-09:21:25-6345
attr configname Experimentos
attr datetime 20260514-09:21:25
attr datetimef 20260514-092125
attr experiment Experimentos
attr inifile TwoQueues.ini
attr iterationvars "$p=0.7, $q=0.2, $Y=20, $m=3"
attr iterationvarsd p=0.7/q=0.2/Y=20/m=3
attr iterationvarsf p=0.7,q=0.2,Y=20,m=3-
attr measurement "$p=0.7, $q=0.2, $Y=20, $m=3"
attr network TwoQueues
attr processid 6345
attr repetition 4
attr replication #4
attr resultdir results
attr runnumber 584
attr seedset 584
itervar Y 20
itervar m 3
itervar p 0.7
itervar q 0.2
config description "Barrido completo de parámetros Proyecto 12"
config **.source1.p 0.7
config **.source1.q 0.2
config **.source2.p 0.6
config **.source2.q 0.2
config **.serverWithMaintenance.Y 20
config **.serverWithMaintenance.m 3
config network TwoQueues
config cpu-time-limit 5000s
config sim-time-limit 5000s
config warmup-period 400s
config repeat 20
config output-scalar-file results/Experimentos-p=0.7,q=0.2,Y=20,m=3--#4.sca
config output-vector-file results/Experimentos-p=0.7,q=0.2,Y=20,m=3--#4.vec
config **.vector-recording true

vector 0 TwoQueues.serverWithMaintenance residenceTime2:vector ETV
attr recordingmode vector
attr source delay2
attr title "Residence Time Class 2"
vector 1 TwoQueues.queue2 queueLengthStats:vector ETV
attr recordingmode vector
attr source qlen
attr title "Average Queue Length"
vector 2 TwoQueues.queue1 queueLengthStats:vector ETV
attr recordingmode vector
attr source qlen
attr title "Average Queue Length"
vector 3 TwoQueues.server residenceTime1:vector ETV
attr recordingmode vector
attr source delay1
attr title "Residence Time Class 1"
vector 4 TwoQueues.server throughputStats1:vector ETV
attr recordingmode vector
attr source throughput1
attr title "Throughput Class 1"
0	2023	407	1
0	2044	411	5
0	2050	412	5
0	2082	417	1
0	2104	423	1
0	2153	429	1
0	2164	430	2
0	2191	435	1
0	2266	449	1
0	2279	451	1
0	2285	452	2
0	2317	458	1
0	2348	466	1
0	2405	478	1
0	2431	481	1
0	2453	486	1
0	2467	488	1
0	2509	504	1
0	2518	506	1
0	2534	510	1
0	2603	525	1
0	2660	534	1
0	2669	536	1
0	2712	545	1
0	2723	548	1
0	2730	549	1
0	2746	552	1
0	2762	554	1
0	2782	556	1
0	2803	559	1
0	2828	563	1
0	2838	565	1
0	2844	566	2
0	2868	573	1
0	2907	579	1
0	2932	585	1
0	2943	587	1
0	2953	588	1
0	3010	604	1
0	3053	613	1
0	3067	615	1
0	3082	619	3
0	3088	620	2
0	3097	622	1
0	3111	624	1
0	3118	625	1
0	3139	629	1
0	3148	630	2
0	3172	637	1
0	3184	639	1
0	3193	640	2
0	3230	647	1
0	3239	648	2
0	3294	663	1
0	3312	667	1
0	3319	668	1
0	3396	689	1
0	3415	696	1
0	3432	702	1
0	3439	703	1
0	3450	706	1
0	3464	710	2
0	3513	717	1
0	3552	724	1
0	3579	731	1
0	3601	736	1
0	3611	737	1
0	3630	742	1
0	3702	756	1
0	3708	757	2
0	3746	766	1
0	3768	772	1
0	3782	774	1
0	3789	775	1
0	3797	776	1
0	3804	777	2
0	3810	778	2
0	3827	784	1
0	3840	787	1
0	3852	789	1
0	3868	792	1
0	3919	801	1
0	3984	811	1
0	3996	812	1
0	4069	827	1
0	4087	830	1
0	4134	847	1
0	4161	853	1
0	4181	858	1
0	4194	862	1
0	4208	864	1
0	4231	869	1
0	4240	870	2
0	4256	873	1
0	4266	874	1
0	4317	884	1
0	4330	885	1
0	4345	886	2
0	4370	889	1
0	4414	895	1
0	4506	912	1
0	4531	916	4
0	4537	917	5
0	4546	918	6
0	4554	919	4
0	4563	921	1
0	4586	925	1
0	4627	933	1
0	4742	968	1
0	4835	991	1
0	4900	1007	1
0	4916	1010	1
0	4926	1012	1
0	4938	1013	2
0	4949	1014	1
0	4994	1024	1
0	5031	1030	1
0	5096	1045	1
0	5116	1049	1
0	5143	1054	1
0	5178	1059	1
0	5208	1063	4
0	5233	1068	1
0	5250	1074	1
0	5273	1078	1
0	5299	1086	1
0	5321	1090	1
0	5345	1093	1
0	5371	1097	1
0	5378	1098	1
0	5388	1099	1
0	5482	1115	1
0	5489	1116	1
0	5505	1120	1
0	5517	1121	1
0	5546	1127	1
0	5565	1134	1
0	5586	1138	1
0	5597	1139	2
0	5603	1140	2
0	5609	1141	3
0	5701	1158	1
0	5740	1163	1
0	5758	1165	1
0	5769	1166	1
0	5786	1168	1
0	5798	1170	1
0	5819	1173	1
0	5852	1182	1
0	5918	1199	1
0	5980	1211	1
0	5987	1212	1
0	6035	1226	1
0	6046	1228	1
0	6059	1230	1
0	6069	1231	2
0	6081	1232	1
0	6098	1235	1
0	6115	1241	1
0	6126	1242	1
0	6144	1244	1
0	6169	1248	5
0	6180	1249	1
0	6218	1257	1
0	6228	1258	1
0	6237	1259	1
0	6250	1262	1
0	6261	1263	1
0	6270	1264	2
0	6302	1268	1
0	6337	1274	1
0	6405	1287	1
0	6437	1294	1
0	6497	1304	1
0	6506	1306	1
0	6515	1308	1
0	6587	1328	1
0	6606	1331	1
0	6615	1333	1
0	6622	1334	1
0	6658	1342	1
0	6695	1349	1
0	6705	1350	1
0	6727	1356	1
0	6736	1358	1
0	6750	1361	1
0	6839	1377	1
0	6857	1381	1
0	6868	1382	1
0	6876	1383	2
0	6892	1385	1
0	6953	1399	1
0	6964	1402	1
0	6985	1405	1
0	6992	1406	1
0	6999	1407	1
0	7028	1411	1
0	7035	1412	2
0	7041	1413	2
0	7053	1416	1
0	7062	1417	2
0	7082	1421	4
0	7092	1422	5
0	7138	1432	1
0	7158	1436	1
0	7205	1447	1
0	7246	1459	1
0	7265	1461	1
0	7306	1470	1
0	7339	1479	1
0	7367	1487	1
0	7377	1488	1
0	7402	1493	1
0	7411	1495	1
0	7431	1500	1
0	7444	1504	1
0	7484	1514	1
0	7502	1518	1
0	7559	1527	1
0	7569	1528	2
0	7590	1531	1
0	7618	1535	4
0	7624	1536	3
0	7669	1545	1
0	7704	1551	1
0	7714	1552	1
0	7723	1553	1
0	7747	1560	1
0	7754	1561	1
0	7765	1562	1
0	7791	1566	1
0	7805	1568	1
0	7827	1571	1
0	7838	1572	1
0	7848	1573	1
0	7866	1576	1
0	7878	1578	1
0	7930	1589	1
0	7950	1594	1
0	7957	1595	1
0	7967	1596	1
0	7996	1600	2
0	8007	1601	1
0	8019	1603	1
0	8031	1605	1
0	8050	1607	1
0	8059	1608	2
0	8086	1612	1
0	8097	1613	2
0	8106	1614	2
0	8131	1620	1
0	8150	1623	1
0	8156	1624	2
0	8187	1632	1
0	8197	1633	1
0	8206	1634	1
0	8258	1645	1
0	8285	1651	1
0	8357	1662	1
0	8375	1666	1
0	8409	1671	1
0	8443	1675	4
0	8453	1676	4
0	8477	1679	1
0	8493	1682	1
0	8524	1690	1
0	8534	1691	1
0	8561	1695	1
0	8578	1698	1
0	8614	1704	1
0	8628	1705	1
0	8639	1706	1
0	8664	1709	1
0	8678	1712	1
0	8686	1713	1
0	8697	1714	2
0	8705	1715	2
0	8714	1716	3
0	8733	1721	1
0	8762	1727	1
0	8773	1728	1
0	8806	1732	2
0	8885	1744	1
0	8897	1746	1
0	8938	1754	1
0	8958	1760	1
0	9015	1775	1
0	9033	1779	1
0	9059	1787	1
0	9068	1789	1
0	9075	1790	1
0	9088	1794	1
0	9149	1807	1
0	9164	1812	1
0	9179	1816	1
0	9215	1824	1
0	9251	1832	1
0	9271	1838	1
0	9278	1839	1
0	9305	1844	1
0	9331	1848	1
0	9367	1852	1
0	9384	1854	1
0	9417	1858	1
0	9435	1860	1
0	9452	1862	1
0	9487	1867	1
0	9516	1875	1
0	9527	1877	1
0	9572	1887	1
0	9604	1899	1
0	9616	1902	1
0	9622	1903	2
0	9634	1904	1
0	9646	1905	1
0	9656	1906	2
0	9691	1913	1
0	9717	1916	1
0	9738	1918	1
0	9756	1920	1
0	9779	1923	1
0	9796	1927	2
0	9875	1944	1
0	9882	1945	1
0	9889	1946	1
0	9921	1953	1
0	9955	1959	1
0	10007	1969	1
0	10028	1972	1
0	10067	1979	1
0	10077	1980	1
0	10091	1983	1
0	10163	1994	1
0	10207	2005	1
0	10228	2009	1
0	10239	2010	1
0	10296	2022	1
0	10305	2024	1
0	10322	2026	1
0	10457	2065	1
0	10470	2069	1
0	10521	2078	1
0	10561	2086	1
0	10567	2087	2
0	10609	2098	1
0	10647	2107	1
0	10658	2110	1
0	10665	2111	1
0	10697	2116	1
0	10730	2120	1
0	10749	2124	1
0	10760	2125	1
0	10772	2126	1
0	10829	2138	1
0	10840	2140	1
0	10916	2156	1
0	10922	2157	2
0	10951	2164	1
0	10974	2167	1
0	10993	2170	1
0	11000	2171	1
0	11024	2175	1
0	11048	2178	1
0	11057	2179	2
0	11071	2181	1
0	11095	2187	1
0	11109	2190	1
0	11119	2191	1
0	11139	2195	1
0	11149	2197	1
0	11155	2198	2
0	11207	2208	1
0	11226	2211	1
0	11356	2241	1
0	11367	2244	1
0	11380	2248	1
0	11446	2260	1
0	11476	2265	1
0	11490	2268	1
0	11556	2281	1
0	11580	2288	1
0	11599	2292	2
0	11614	2297	1
0	11651	2302	1
0	11663	2304	1
0	11687	2310	1
0	11758	2329	1
0	11765	2330	1
0	11809	2336	1
0	11829	2340	1
0	11868	2346	1
0	11878	2347	2
0	11913	2353	1
0	11955	2363	1
0	11973	2365	1
0	11984	2366	1
0	11997	2368	1
0	12003	2369	2
0	12033	2376	1
0	12039	2377	2
0	12057	2380	1
0	12080	2384	3
0	12086	2385	2
0	12150	2403	1
0	12192	2413	1
0	12203	2416	1
0	12262	2427	1
0	12280	2431	1
0	12325	2441	1
0	12431	2465	1
0	12465	2472	1
0	12524	2480	1
0	12535	2481	1
0	12558	2486	1
0	12576	2490	1
0	12653	2511	1
0	12668	2516	1
0	12712	2525	1
0	12719	2526	2
0	12729	2527	2
0	12737	2528	2
0	12755	2532	2
0	12766	2533	3
0	12773	2534	3
0	12782	2535	3
0	12790	2536	4
0	12796	2537	4
0	12810	2539	1
0	12838	2544	1
0	12861	2547	1
0	12886	2553	1
0	12902	2555	1
0	12917	2559	1
0	12931	2561	1
0	12986	2572	1
0	12997	2575	1
0	13060	2584	1
0	13103	2590	1
0	13109	2591	2
0	13118	2593	1
0	13169	2611	1
0	13203	2620	1
0	13228	2623	1
0	13250	2625	1
0	13268	2627	1
0	13279	2628	2
0	13291	2629	2
0	13426	2649	1
0	13448	2655	1
0	13518	2669	1
0	13536	2673	1
0	13546	2674	2
0	13556	2675	3
0	13632	2686	1
0	13664	2690	1
0	13670	2691	2
0	13679	2693	1
0	13690	2696	1
0	13710	2703	1
0	13716	2704	2
0	13730	2706	1
0	13750	2713	1
0	13763	2717	1
0	13776	2720	1
0	13797	2724	1
0	13822	2729	1
0	13840	2732	1
0	13861	2736	1
0	13908	2743	1
0	13924	2745	1
0	13939	2750	1
0	13960	2758	1
0	13997	2769	1
0	14011	2771	1
0	14022	2773	1
0	14042	2779	1
0	14069	2784	1
0	14097	2794	1
0	14141	2800	1
0	14151	2801	1
0	14171	2806	1
0	14190	2810	3
0	14201	2813	1
0	14267	2830	1
0	14291	2834	1
0	14309	2836	1
0	14361	2846	1
0	14371	2847	2
0	14381	2848	1
0	14395	2850	1
0	14402	2851	1
0	14415	2854	1
0	14439	2858	1
0	14466	2863	1
0	14500	2868	1
0	14542	2876	1
0	14608	2894	1
0	14655	2906	1
0	14693	2916	1
0	14702	2917	2
0	14723	2923	1
0	14745	2927	2
0	14752	2928	1
0	14759	2929	1
0	14776	2935	1
0	14785	2937	1
0	14823	2945	1
0	14848	2951	1
0	14855	2952	1
0	14892	2963	1
0	14949	2973	1
0	14959	2974	1
0	14969	2975	1
0	14980	2977	1
0	14997	2983	1
0	15004	2984	1
0	15014	2986	1
0	15023	2987	2
0	15044	2993	1
0	15057	2994	1
0	15069	2995	2
0	15091	2999	1
0	15097	3000	2
0	15126	3007	1
0	15133	3008	1
0	15140	3009	1
0	15163	3012	1
0	15173	3013	1
0	15182	3015	1
0	15211	3022	1
0	15227	3025	1
0	15248	3028	1
0	15286	3037	1
0	15298	3038	1
0	15337	3045	1
0	15372	3055	1
0	15379	3056	1
0	15399	3060	1
0	15409	3061	1
0	15418	3063	1
0	15427	3065	1
0	15450	3069	3
0	15462	3070	2
0	15484	3073	1
0	15491	3074	1
0	15514	3079	1
0	15555	3086	1
0	15570	3091	1
0	15581	3093	1
0	15593	3095	1
0	15602	3097	1
0	15617	3102	1
0	15642	3108	1
0	15742	3123	1
0	15753	3124	1
0	15763	3125	1
0	15778	3129	1
0	15801	3134	1
0	15840	3140	1
0	15851	3141	1
0	15857	3142	2
0	15872	3146	3
0	15878	3147	2
0	15894	3150	1
0	15908	3153	1
0	15924	3155	1
0	15958	3160	1
0	16007	3170	1
0	16032	3173	1
0	16071	3181	1
0	16101	3191	1
0	16171	3205	1
0	16180	3206	2
0	16188	3207	3
0	16197	3209	1
0	16223	3217	1
0	16259	3224	1
0	16280	3227	1
0	16301	3230	1
0	16313	3232	1
0	16339	3236	1
0	16360	3240	4
0	16374	3242	1
0	16393	3245	1
0	16402	3246	2
0	16409	3247	1
0	16432	3251	1
0	16474	3261	1
0	16492	3266	1
0	16528	3274	1
0	16544	3276	1
0	16558	3279	1
0	16588	3284	1
0	16642	3291	1
0	16666	3294	1
0	16677	3295	2
0	16736	3309	1
0	16747	3310	1
0	16819	3323	1
0	16831	3324	1
0	16888	3334	1
0	16904	3338	1
0	16926	3342	1
0	16932	3343	2
0	17020	3362	1
0	17029	3364	1
0	17060	3372	1
0	17118	3391	1
0	17131	3395	1
0	17142	3397	1
0	17191	3409	1
0	17219	3412	1
0	17248	3416	1
0	17257	3418	1
0	17264	3419	1
0	17334	3438	1
0	17350	3442	1
0	17368	3444	1
0	17378	3445	2
0	17388	3446	1
0	17441	3455	1
0	17476	3459	3
0	17487	3460	4
0	17496	3461	3
0	17505	3462	4
0	17513	3463	4
0	17528	3468	1
0	17545	3474	1
0	17584	3486	1
0	17651	3503	1
0	17694	3510	1
0	17723	3517	1
0	17741	3522	1
0	17751	3524	1
0	17762	3525	2
0	17780	3527	1
0	17807	3531	1
0	17816	3532	2
0	17864	3541	1
0	17887	3545	1
0	17917	3551	1
0	17936	3555	5
0	17947	3556	1
0	17957	3557	1
0	18003	3564	1
0	18038	3568	1
0	18070	3576	1
0	18077	3577	1
0	18120	3590	1
0	18147	3596	1
0	18161	3599	1
0	18227	3608	1
0	18236	3609	2
0	18256	3614	1
0	18265	3616	1
0	18276	3617	1
0	18287	3618	1
0	18306	3620	1
0	18317	3621	2
0	18392	3642	1
0	18428	3649	1
0	18459	3654	1
0	18469	3655	1
0	18484	3660	1
0	18498	3661	1
0	18555	3669	1
0	18571	3671	1
0	18578	3672	1
0	18623	3682	1
0	18632	3684	1
0	18643	3686	1
0	18684	3695	1
0	18692	3696	1
0	18699	3697	2
0	18705	3698	2
0	18724	3704	1
0	18777	3714	1
0	18784	3715	1
0	18791	3716	1
0	18798	3717	1
0	18805	3718	1
0	18820	3722	4
0	18826	3723	3
0	18849	3729	1
0	18855	3730	2
0	18906	3743	1
0	18924	3747	1
0	18934	3748	1
0	18979	3755	1
0	19049	3777	1
0	19060	3779	1
0	19093	3784	1
0	19100	3785	1
0	19109	3787	1
0	19118	3789	1
0	19129	3791	1
0	19170	3805	1
0	19177	3806	1
0	19210	3811	1
0	19267	3821	1
0	19303	3834	1
0	19352	3848	1
0	19361	3850	1
0	19368	3851	1
0	19377	3853	1
0	19391	3855	1
0	19419	3860	1
0	19428	3861	2
0	19483	3869	1
0	19505	3872	1
0	19520	3877	1
0	19659	3919	1
0	19713	3935	1
0	19746	3945	1
0	19770	3952	1
0	19790	3958	1
0	19808	3961	1
0	19831	3965	1
0	19842	3968	1
0	19865	3972	1
0	19902	3979	1
0	19922	3983	5
0	19932	3984	4
0	19938	3985	5
0	19949	3986	3
0	19961	3987	2
0	19982	3990	1
0	20001	3993	1
0	20055	4001	1
0	20061	4002	2
0	20097	4010	1
0	20152	4025	1
0	20261	4047	1
0	20293	4053	1
0	20302	4055	1
0	20333	4060	1
0	20378	4068	1
0	20390	4069	1
0	20501	4093	1
0	20510	4094	2
0	20517	4095	1
0	20550	4101	1
0	20564	4103	1
0	20579	4108	1
0	20590	4109	1
0	20602	4110	2
0	20687	4127	1
0	20698	4130	1
0	20716	4134	1
0	20723	4135	1
0	20742	4138	1
0	20766	4141	1
0	20775	4142	2
0	20790	4146	1
0	20835	4158	1
0	20841	4159	2
0	20865	4166	1
0	20876	4168	1
0	20886	4169	1
0	20921	4174	1
0	20940	4181	1
0	20960	4185	4
0	20966	4186	2
0	21019	4195	1
0	21049	4199	1
0	21137	4219	1
0	21144	4220	1
0	21151	4221	1
0	21178	4226	1
0	21197	4229	1
0	21222	4234	1
0	21249	4240	1
0	21272	4248	1
0	21284	4250	1
0	21306	4256	1
0	21317	4257	2
0	21327	4258	2
0	21369	4267	1
0	21379	4268	2
0	21388	4269	2
0	21394	4270	2
0	21410	4275	1
0	21449	4282	1
0	21465	4285	1
0	21476	4288	1
0	21497	4291	1
0	21504	4292	1
0	21566	4302	1
0	21591	4308	1
0	21615	4314	1
0	21633	4319	1
0	21643	4321	1
0	21652	4322	2
0	21665	4325	1
0	21754	4347	1
0	21776	4353	1
0	21796	4358	1
0	21805	4360	1
0	21842	4369	1
0	21852	4370	2
0	21873	4373	1
0	21900	4377	4
0	21942	4383	1
0	21957	4387	1
0	21974	4389	1
0	21984	4390	1
0	21993	4391	1
0	22006	4393	1
0	22057	4403	1
0	22074	4405	1
0	22107	4409	1
0	22137	4415	1
0	22146	4416	2
0	22162	4418	1
0	22171	4420	1
0	22178	4421	1
0	22252	4437	1
0	22304	4445	1
0	22316	4446	2
0	22328	4447	1
0	22351	4450	1
0	22393	4458	1
0	22407	4460	1
0	22418	4462	1
0	22428	4463	1
0	22494	4475	1
0	22519	4481	1
0	22563	4488	1
0	22594	4492	1
0	22627	4496	1
0	22637	4497	2
0	22643	4498	2
0	22658	4503	1
0	22668	4504	1
0	22686	4507	1
0	22703	4509	1
0	22734	4515	1
0	22768	4522	1
0	22834	4533	1
0	22840	4534	2
0	22857	4537	1
0	22872	4541	5
0	22881	4542	4
0	22889	4543	3
0	22899	4544	1
0	22950	4555	1
0	22966	4558	1
0	22991	4564	1
0	22998	4565	1
0	23023	4570	1
0	23034	4571	1
0	23076	4579	1
0	23092	4582	1
0	23099	4583	1
0	23119	4586	1
0	23130	4587	2
0	23139	4588	2
0	23175	4596	1
0	23195	4601	1
0	23223	4609	1
0	23248	4615	1
0	23274	4619	1
0	23297	4623	1
0	23309	4624	1
0	23335	4632	1
0	23356	4635	1
0	23368	4636	1
0	23382	4639	1
0	23393	4642	1
0	23409	4647	1
0	23415	4648	2
0	23428	4651	1
0	23444	4654	1
0	23454	4655	1
0	23518	4664	1
0	23547	4668	1
0	23568	4671	1
0	23602	4679	1
0	23625	4684	1
0	23657	4688	1
0	23698	4699	1
0	23718	4703	5
0	23802	4727	1
0	23820	4729	1
0	23836	4733	1
0	23843	4734	1
0	23879	4742	1
0	23886	4743	1
0	23897	4746	1
0	23919	4752	1
0	23926	4753	1
0	23956	4758	1
0	23983	4762	1
0	24035	4769	1
0	24045	4770	1
0	24054	4772	1
0	24105	4785	1
0	24121	4787	1
0	24234	4813	1
0	24254	4816	1
0	24264	4817	1
0	24278	4821	4
0	24288	4822	1
0	24317	4828	1
0	24327	4829	1
0	24349	4834	1
0	24403	4846	1
0	24441	4855	1
0	24453	4857	1
0	24464	4858	1
0	24476	4859	1
0	24492	4863	1
0	24529	4869	1
0	24578	4880	1
0	24588	4881	1
0	24617	4888	1
0	24638	4891	1
0	24649	4894	1
0	24667	4898	1
0	24708	4906	1
0	24732	4912	1
0	24759	4916	1
0	24772	4920	1
0	24781	4922	1
0	24809	4928	1
0	24815	4929	2
0	24830	4932	1
0	24877	4942	1
0	24888	4943	2
0	24896	4944	2
0	24906	4945	3
0	24927	4950	1
0	24938	4951	1
0	24949	4952	1
0	24976	4962	1
0	24999	4971	1
0	25017	4974	1
0	25055	4979	1
0	25112	4988	1
0	25130	4990	1
0	25150	4994	1
0	25175	4998	2
0	25182	4999	3
0	25191	5000	2
1	2013	406	1
1	2013	406	0
1	2014	406	1
1	2025	407	2
1	2040	410	1
1	2046	411	0
1	2076	416	1
1	2076	416	0
1	2098	422	1
1	2098	422	0
1	2145	428	1
1	2145	428	0
1	2146	428	1
1	2157	429	0
1	2187	434	1
1	2187	434	0
1	2260	448	1
1	2260	448	0
1	2274	450	1
1	2274	450	0
1	2275	450	1
1	2281	451	0
1	2311	457	1
1	2311	457	0
1	2344	465	1
1	2344	465	0
1	2398	477	1
1	2398	477	0
1	2423	480	1
1	2423	480	0
1	2449	485	1
1	2449	485	0
1	2461	487	1
1	2461	487	0
1	2505	503	1
1	2505	503	0
1	2514	505	1
1	2514	505	0
1	2527	509	1
1	2527	509	0
1	2597	524	1
1	2597	524	0
1	2656	533	1
1	2656	533	0
1	2665	535	1
1	2665	535	0
1	2708	544	1
1	2708	544	0
1	2719	547	1
1	2719	547	0
1	2724	548	1
1	2726	548	0
1	2742	551	1
1	2742	551	0
1	2755	553	1
1	2755	553	0
1	2775	555	1
1	2775	555	0
1	2796	558	1
1	2796	558	0
1	2824	562	1
1	2824	562	0
1	2833	564	1
1	2833	564	0
1	2834	564	1
1	2840	565	0
1	2862	572	1
1	2862	572	0
1	2900	578	1
1	2900	578	0
1	2928	584	1
1	2928	584	0
1	2937	586	1
1	2937	586	0
1	2945	587	1
1	2947	587	0
1	3006	603	1
1	3006	603	0
1	3049	612	1
1	3049	612	0
1	3061	614	1
1	3061	614	0
1	3071	616	1
1	3077	618	0
1	3078	618	1
1	3084	619	0
1	3093	621	1
1	3093	621	0
1	3105	623	1
1	3105	623	0
1	3112	624	1
1	3114	624	0
1	3131	628	1
1	3131	628	0
1	3132	628	1
1	3142	629	0
1	3168	636	1
1	3168	636	0
1	3177	638	1
1	3177	638	0
1	3178	638	1
1	3187	639	0
1	3221	646	1
1	3221	646	0
1	3222	646	1
1	3233	647	0
1	3290	662	1
1	3290	662	0
1	3308	666	1
1	3308	666	0
1	3313	667	1
1	3315	667	0
1	3390	688	1
1	3390	688	0
1	3411	695	1
1	3411	695	0
1	3428	701	1
1	3428	701	0
1	3433	702	1
1	3435	702	0
1	3446	705	1
1	3446	705	0
1	3456	708	1
1	3460	709	0
1	3507	716	1
1	3507	716	0
1	3548	723	1
1	3548	723	0
1	3572	730	1
1	3572	730	0
1	3597	735	1
1	3597	735	0
1	3602	736	1
1	3605	736	0
1	3624	741	1
1	3624	741	0
1	3695	755	1
1	3695	755	0
1	3696	755	1
1	3704	756	0
1	3740	765	1
1	3740	765	0
1	3764	771	1
1	3764	771	0
1	3776	773	1
1	3776	773	0
1	3783	774	1
1	3785	774	0
1	3790	775	1
1	3791	775	2
1	3793	775	1
1	3798	776	2
1	3800	776	1
1	3806	777	0
1	3823	783	1
1	3823	783	0
1	3834	786	1
1	3834	786	0
1	3848	788	1
1	3848	788	0
1	3864	791	1
1	3864	791	0
1	3912	800	1
1	3912	800	0
1	3977	810	1
1	3977	810	0
1	3986	811	1
1	3989	811	0
1	4063	826	1
1	4063	826	0
1	4081	829	1
1	4081	829	0
1	4130	846	1
1	4130	846	0
1	4157	852	1
1	4157	852	0
1	4177	857	1
1	4177	857	0
1	4190	861	1
1	4190	861	0
1	4202	863	1
1	4202	863	0
1	4224	868	1
1	4224	868	0
1	4225	868	1
1	4234	869	0
1	4250	872	1
1	4250	872	0
1	4257	873	1
1	4260	873	0
1	4309	883	1
1	4309	883	0
1	4319	884	1
1	4320	884	2
1	4323	884	1
1	4338	885	0
1	4363	888	1
1	4363	888	0
1	4407	894	1
1	4407	894	0
1	4500	911	1
1	4500	911	0
1	4508	912	1
1	4509	912	2
1	4510	912	3
1	4526	915	2
1	4527	915	3
1	4533	916	2
1	4540	917	1
1	4550	918	0
1	4559	920	1
1	4559	920	0
1	4580	924	1
1	4580	924	0
1	4623	932	1
1	4623	932	0
1	4738	967	1
1	4738	967	0
1	4829	990	1
1	4829	990	0
1	4896	1006	1
1	4896	1006	0
1	4910	1009	1
1	4910	1009	0
1	4921	1011	1
1	4921	1011	0
1	4922	1011	1
1	4932	1012	0
1	4939	1013	1
1	4943	1013	0
1	4990	1023	1
1	4990	1023	0
1	5027	1029	1
1	5027	1029	0
1	5092	1044	1
1	5092	1044	0
1	5108	1048	1
1	5108	1048	0
1	5136	1053	1
1	5136	1053	0
1	5169	1058	1
1	5169	1058	0
1	5180	1059	1
1	5202	1062	0
1	5229	1067	1
1	5229	1067	0
1	5246	1073	1
1	5246	1073	0
1	5267	1077	1
1	5267	1077	0
1	5295	1085	1
1	5295	1085	0
1	5312	1089	1
1	5312	1089	0
1	5338	1092	1
1	5338	1092	0
1	5365	1096	1
1	5365	1096	0
1	5372	1097	1
1	5374	1097	0
1	5379	1098	1
1	5382	1098	0
1	5476	1114	1
1	5476	1114	0
1	5483	1115	1
1	5485	1115	0
1	5498	1119	1
1	5498	1119	0
1	5507	1120	1
1	5510	1120	0
1	5542	1126	1
1	5542	1126	0
1	5561	1133	1
1	5561	1133	0
1	5577	1137	1
1	5577	1137	0
1	5578	1137	1
1	5588	1138	2
1	5589	1138	3
1	5591	1138	2
1	5599	1139	1
1	5605	1140	0
1	5693	1157	1
1	5693	1157	0
1	5729	1162	1
1	5729	1162	0
1	5751	1164	1
1	5751	1164	0
1	5760	1165	1
1	5762	1165	0
1	5779	1167	1
1	5779	1167	0
1	5794	1169	1
1	5794	1169	0
1	5813	1172	1
1	5813	1172	0
1	5846	1181	1
1	5846	1181	0
1	5912	1198	1
1	5912	1198	0
1	5974	1210	1
1	5974	1210	0
1	5981	1211	1
1	5983	1211	0
1	6029	1225	1
1	6029	1225	0
1	6040	1227	1
1	6040	1227	0
1	6054	1229	1
1	6054	1229	0
1	6055	1229	1
1	6063	1230	0
1	6070	1231	1
1	6075	1231	0
1	6094	1234	1
1	6094	1234	0
1	6111	1240	1
1	6111	1240	0
1	6116	1241	1
1	6120	1241	0
1	6135	1243	1
1	6135	1243	0
1	6136	1243	1
1	6162	1247	0
1	6171	1248	1
1	6173	1248	0
1	6214	1256	1
1	6214	1256	0
1	6219	1257	1
1	6222	1257	0
1	6229	1258	1
1	6233	1258	0
1	6244	1261	1
1	6244	1261	0
1	6252	1262	1
1	6253	1262	2
1	6255	1262	1
1	6264	1263	0
1	6294	1267	1
1	6294	1267	0
1	6331	1273	1
1	6331	1273	0
1	6399	1286	1
1	6399	1286	0
1	6433	1293	1
1	6433	1293	0
1	6493	1303	1
1	6493	1303	0
1	6502	1305	1
1	6502	1305	0
1	6511	1307	1
1	6511	1307	0
1	6581	1327	1
1	6581	1327	0
1	6600	1330	1
1	6600	1330	0
1	6611	1332	1
1	6611	1332	0
1	6616	1333	1
1	6618	1333	0
1	6654	1341	1
1	6654	1341	0
1	6689	1348	1
1	6689	1348	0
1	6697	1349	1
1	6699	1349	0
1	6723	1355	1
1	6723	1355	0
1	6732	1357	1
1	6732	1357	0
1	6743	1360	1
1	6743	1360	0
1	6835	1376	1
1	6835	1376	0
1	6853	1380	1
1	6853	1380	0
1	6858	1381	1
1	6859	1381	2
1	6862	1381	1
1	6872	1382	0
1	6885	1384	1
1	6885	1384	0
1	6947	1398	1
1	6947	1398	0
1	6960	1401	1
1	6960	1401	0
1	6979	1404	1
1	6979	1404	0
1	6986	1405	1
1	6988	1405	0
1	6993	1406	1
1	6995	1406	0
1	7021	1410	1
1	7021	1410	0
1	7022	1410	1
1	7029	1411	2
1	7031	1411	1
1	7037	1412	0
1	7048	1415	1
1	7048	1415	0
1	7049	1415	1
1	7056	1416	0
1	7063	1417	1
1	7064	1417	2
1	7075	1420	1
1	7085	1421	0
1	7131	1431	1
1	7131	1431	0
1	7154	1435	1
1	7154	1435	0
1	7201	1446	1
1	7201	1446	0
1	7240	1458	1
1	7240	1458	0
1	7257	1460	1
1	7257	1460	0
1	7302	1469	1
1	7302	1469	0
1	7335	1478	1
1	7335	1478	0
1	7361	1486	1
1	7361	1486	0
1	7369	1487	1
1	7371	1487	0
1	7398	1492	1
1	7398	1492	0
1	7407	1494	1
1	7407	1494	0
1	7427	1499	1
1	7427	1499	0
1	7440	1503	1
1	7440	1503	0
1	7480	1513	1
1	7480	1513	0
1	7496	1517	1
1	7496	1517	0
1	7550	1526	1
1	7550	1526	0
1	7551	1526	1
1	7562	1527	0
1	7583	1530	1
1	7583	1530	0
1	7592	1531	1
1	7604	1533	2
1	7612	1534	1
1	7620	1535	0
1	7661	1544	1
1	7661	1544	0
1	7700	1550	1
1	7700	1550	0
1	7705	1551	1
1	7708	1551	0
1	7715	1552	1
1	7719	1552	0
1	7743	1559	1
1	7743	1559	0
1	7748	1560	1
1	7750	1560	0
1	7755	1561	1
1	7759	1561	0
1	7783	1565	1
1	7783	1565	0
1	7799	1567	1
1	7799	1567	0
1	7818	1570	1
1	7818	1570	0
1	7829	1571	1
1	7831	1571	0
1	7840	1572	1
1	7842	1572	0
1	7860	1575	1
1	7860	1575	0
1	7874	1577	1
1	7874	1577	0
1	7924	1588	1
1	7924	1588	0
1	7944	1593	1
1	7944	1593	0
1	7951	1594	1
1	7953	1594	0
1	7958	1595	1
1	7961	1595	0
1	7980	1598	1
1	7988	1599	0
1	7998	1600	1
1	8000	1600	0
1	8015	1602	1
1	8015	1602	0
1	8024	1604	1
1	8024	1604	0
1	8041	1606	1
1	8041	1606	0
1	8042	1606	1
1	8053	1607	0
1	8076	1611	1
1	8076	1611	0
1	8077	1611	1
1	8088	1612	2
1	8090	1612	1
1	8100	1613	0
1	8124	1619	1
1	8124	1619	0
1	8145	1622	1
1	8145	1622	0
1	8146	1622	1
1	8152	1623	0
1	8183	1631	1
1	8183	1631	0
1	8188	1632	1
1	8191	1632	0
1	8198	1633	1
1	8202	1633	0
1	8254	1644	1
1	8254	1644	0
1	8281	1650	1
1	8281	1650	0
1	8353	1661	1
1	8353	1661	0
1	8371	1665	1
1	8371	1665	0
1	8401	1670	1
1	8401	1670	0
1	8411	1671	1
1	8420	1672	2
1	8436	1674	1
1	8446	1675	0
1	8471	1678	1
1	8471	1678	0
1	8489	1681	1
1	8489	1681	0
1	8518	1689	1
1	8518	1689	0
1	8525	1690	1
1	8528	1690	0
1	8554	1694	1
1	8554	1694	0
1	8571	1697	1
1	8571	1697	0
1	8608	1703	1
1	8608	1703	0
1	8616	1704	1
1	8621	1704	0
1	8630	1705	1
1	8632	1705	0
1	8657	1708	1
1	8657	1708	0
1	8674	1711	1
1	8674	1711	0
1	8679	1712	1
1	8680	1712	2
1	8682	1712	1
1	8687	1713	2
1	8688	1713	3
1	8691	1713	2
1	8701	1714	1
1	8708	1715	0
1	8727	1720	1
1	8727	1720	0
1	8752	1726	1
1	8752	1726	0
1	8764	1727	1
1	8766	1727	0
1	8789	1730	1
1	8799	1731	0
1	8879	1743	1
1	8879	1743	0
1	8893	1745	1
1	8893	1745	0
1	8934	1753	1
1	8934	1753	0
1	8951	1759	1
1	8951	1759	0
1	9011	1774	1
1	9011	1774	0
1	9029	1778	1
1	9029	1778	0
1	9055	1786	1
1	9055	1786	0
1	9064	1788	1
1	9064	1788	0
1	9069	1789	1
1	9071	1789	0
1	9084	1793	1
1	9084	1793	0
1	9145	1806	1
1	9145	1806	0
1	9160	1811	1
1	9160	1811	0
1	9173	1815	1
1	9173	1815	0
1	9207	1823	1
1	9207	1823	0
1	9244	1831	1
1	9244	1831	0
1	9267	1837	1
1	9267	1837	0
1	9272	1838	1
1	9274	1838	0
1	9299	1843	1
1	9299	1843	0
1	9327	1847	1
1	9327	1847	0
1	9359	1851	1
1	9359	1851	0
1	9377	1853	1
1	9377	1853	0
1	9408	1857	1
1	9408	1857	0
1	9428	1859	1
1	9428	1859	0
1	9445	1861	1
1	9445	1861	0
1	9480	1866	1
1	9480	1866	0
1	9512	1874	1
1	9512	1874	0
1	9521	1876	1
1	9521	1876	0
1	9565	1886	1
1	9565	1886	0
1	9600	1898	1
1	9600	1898	0
1	9611	1901	1
1	9611	1901	0
1	9612	1901	1
1	9618	1902	0
1	9623	1903	1
1	9628	1903	0
1	9635	1904	1
1	9636	1904	2
1	9640	1904	1
1	9650	1905	0
1	9683	1912	1
1	9683	1912	0
1	9709	1915	1
1	9709	1915	0
1	9729	1917	1
1	9729	1917	0
1	9748	1919	1
1	9748	1919	0
1	9772	1922	1
1	9772	1922	0
1	9788	1925	1
1	9792	1926	0
1	9871	1943	1
1	9871	1943	0
1	9876	1944	1
1	9878	1944	0
1	9883	1945	1
1	9885	1945	0
1	9914	1952	1
1	9914	1952	0
1	9951	1958	1
1	9951	1958	0
1	9999	1968	1
1	9999	1968	0
1	10020	1971	1
1	10020	1971	0
1	10061	1978	1
1	10061	1978	0
1	10069	1979	1
1	10071	1979	0
1	10084	1982	1
1	10084	1982	0
1	10154	1993	1
1	10154	1993	0
1	10201	2004	1
1	10201	2004	0
1	10221	2008	1
1	10221	2008	0
1	10230	2009	1
1	10232	2009	0
1	10290	2021	1
1	10290	2021	0
1	10301	2023	1
1	10301	2023	0
1	10313	2025	1
1	10313	2025	0
1	10453	2064	1
1	10453	2064	0
1	10466	2068	1
1	10466	2068	0
1	10514	2077	1
1	10514	2077	0
1	10556	2085	1
1	10556	2085	0
1	10557	2085	1
1	10563	2086	0
1	10605	2097	1
1	10605	2097	0
1	10641	2106	1
1	10641	2106	0
1	10654	2109	1
1	10654	2109	0
1	10659	2110	1
1	10661	2110	0
1	10689	2115	1
1	10689	2115	0
1	10722	2119	1
1	10722	2119	0
1	10742	2123	1
1	10742	2123	0
1	10751	2124	1
1	10753	2124	0
1	10762	2125	1
1	10765	2125	0
1	10823	2137	1
1	10823	2137	0
1	10834	2139	1
1	10834	2139	0
1	10909	2155	1
1	10909	2155	0
1	10910	2155	1
1	10918	2156	0
1	10945	2163	1
1	10945	2163	0
1	10967	2166	1
1	10967	2166	0
1	10989	2169	1
1	10989	2169	0
1	10994	2170	1
1	10996	2170	0
1	11018	2174	1
1	11018	2174	0
1	11039	2177	1
1	11039	2177	0
1	11040	2177	1
1	11051	2178	0
1	11065	2180	1
1	11065	2180	0
1	11087	2186	1
1	11087	2186	0
1	11105	2189	1
1	11105	2189	0
1	11110	2190	1
1	11113	2190	0
1	11135	2194	1
1	11135	2194	0
1	11144	2196	1
1	11144	2196	0
1	11145	2196	1
1	11151	2197	0
1	11201	2207	1
1	11201	2207	0
1	11220	2210	1
1	11220	2210	0
1	11352	2240	1
1	11352	2240	0
1	11363	2243	1
1	11363	2243	0
1	11376	2247	1
1	11376	2247	0
1	11438	2259	1
1	11438	2259	0
1	11469	2264	1
1	11469	2264	0
1	11486	2267	1
1	11486	2267	0
1	11552	2280	1
1	11552	2280	0
1	11576	2287	1
1	11576	2287	0
1	11586	2290	1
1	11593	2291	0
1	11610	2296	1
1	11610	2296	0
1	11643	2301	1
1	11643	2301	0
1	11659	2303	1
1	11659	2303	0
1	11680	2309	1
1	11680	2309	0
1	11752	2328	1
1	11752	2328	0
1	11759	2329	1
1	11761	2329	0
1	11802	2335	1
1	11802	2335	0
1	11821	2339	1
1	11821	2339	0
1	11861	2345	1
1	11861	2345	0
1	11862	2345	1
1	11872	2346	0
1	11907	2352	1
1	11907	2352	0
1	11946	2362	1
1	11946	2362	0
1	11965	2364	1
1	11965	2364	0
1	11975	2365	1
1	11977	2365	0
1	11992	2367	1
1	11992	2367	0
1	11993	2367	1
1	11999	2368	0
1	12028	2375	1
1	12028	2375	0
1	12029	2375	1
1	12035	2376	0
1	12051	2379	1
1	12051	2379	0
1	12064	2381	1
1	12073	2383	0
1	12074	2383	1
1	12082	2384	0
1	12143	2402	1
1	12143	2402	0
1	12188	2412	1
1	12188	2412	0
1	12199	2415	1
1	12199	2415	0
1	12256	2426	1
1	12256	2426	0
1	12274	2430	1
1	12274	2430	0
1	12319	2440	1
1	12319	2440	0
1	12427	2464	1
1	12427	2464	0
1	12461	2471	1
1	12461	2471	0
1	12516	2479	1
1	12516	2479	0
1	12526	2480	1
1	12528	2480	0
1	12554	2485	1
1	12554	2485	0
1	12572	2489	1
1	12572	2489	0
1	12647	2510	1
1	12647	2510	0
1	12664	2515	1
1	12664	2515	0
1	12705	2524	1
1	12705	2524	0
1	12706	2524	1
1	12713	2525	2
1	12715	2525	1
1	12720	2526	2
1	12723	2526	1
1	12733	2527	0
1	12743	2530	1
1	12744	2530	2
1	12748	2531	1
1	12749	2531	2
1	12757	2532	3
1	12758	2532	4
1	12760	2532	3
1	12767	2533	4
1	12769	2533	3
1	12776	2534	2
1	12786	2535	1
1	12792	2536	0
1	12804	2538	1
1	12804	2538	0
1	12830	2543	1
1	12830	2543	0
1	12855	2546	1
1	12855	2546	0
1	12879	2552	1
1	12879	2552	0
1	12896	2554	1
1	12896	2554	0
1	12911	2558	1
1	12911	2558	0
1	12925	2560	1
1	12925	2560	0
1	12982	2571	1
1	12982	2571	0
1	12993	2574	1
1	12993	2574	0
1	13052	2583	1
1	13052	2583	0
1	13096	2589	1
1	13096	2589	0
1	13097	2589	1
1	13105	2590	0
1	13114	2592	1
1	13114	2592	0
1	13165	2610	1
1	13165	2610	0
1	13197	2619	1
1	13197	2619	0
1	13219	2622	1
1	13219	2622	0
1	13240	2624	1
1	13240	2624	0
1	13260	2626	1
1	13260	2626	0
1	13261	2626	1
1	13270	2627	2
1	13272	2627	1
1	13284	2628	0
1	13422	2648	1
1	13422	2648	0
1	13444	2654	1
1	13444	2654	0
1	13510	2668	1
1	13510	2668	0
1	13530	2672	1
1	13530	2672	0
1	13531	2672	1
1	13532	2672	2
1	13540	2673	1
1	13550	2674	0
1	13625	2685	1
1	13625	2685	0
1	13657	2689	1
1	13657	2689	0
1	13658	2689	1
1	13666	2690	0
1	13675	2692	1
1	13675	2692	0
1	13686	2695	1
1	13686	2695	0
1	13705	2702	1
1	13705	2702	0
1	13706	2702	1
1	13712	2703	0
1	13724	2705	1
1	13724	2705	0
1	13746	2712	1
1	13746	2712	0
1	13759	2716	1
1	13759	2716	0
1	13770	2719	1
1	13770	2719	0
1	13793	2723	1
1	13793	2723	0
1	13816	2728	1
1	13816	2728	0
1	13832	2731	1
1	13832	2731	0
1	13857	2735	1
1	13857	2735	0
1	13901	2742	1
1	13901	2742	0
1	13918	2744	1
1	13918	2744	0
1	13935	2749	1
1	13935	2749	0
1	13956	2757	1
1	13956	2757	0
1	13993	2768	1
1	13993	2768	0
1	14005	2770	1
1	14005	2770	0
1	14016	2772	1
1	14016	2772	0
1	14038	2778	1
1	14038	2778	0
1	14061	2783	1
1	14061	2783	0
1	14093	2793	1
1	14093	2793	0
1	14134	2799	1
1	14134	2799	0
1	14143	2800	1
1	14145	2800	0
1	14167	2805	1
1	14167	2805	0
1	14178	2807	1
1	14186	2809	0
1	14197	2812	1
1	14197	2812	0
1	14260	2829	1
1	14260	2829	0
1	14283	2833	1
1	14283	2833	0
1	14302	2835	1
1	14302	2835	0
1	14352	2845	1
1	14352	2845	0
1	14353	2845	1
1	14364	2846	0
1	14373	2847	1
1	14375	2847	0
1	14389	2849	1
1	14389	2849	0
1	14396	2850	1
1	14398	2850	0
1	14409	2853	1
1	14409	2853	0
1	14432	2857	1
1	14432	2857	0
1	14462	2862	1
1	14462	2862	0
1	14493	2867	1
1	14493	2867	0
1	14538	2875	1
1	14538	2875	0
1	14604	2893	1
1	14604	2893	0
1	14648	2905	1
1	14648	2905	0
1	14688	2915	1
1	14688	2915	0
1	14689	2915	1
1	14696	2916	0
1	14717	2922	1
1	14717	2922	0
1	14735	2925	1
1	14741	2926	0
1	14746	2927	1
1	14748	2927	0
1	14753	2928	1
1	14755	2928	0
1	14772	2934	1
1	14772	2934	0
1	14781	2936	1
1	14781	2936	0
1	14817	2944	1
1	14817	2944	0
1	14844	2950	1
1	14844	2950	0
1	14849	2951	1
1	14851	2951	0
1	14888	2962	1
1	14888	2962	0
1	14942	2972	1
1	14942	2972	0
1	14951	2973	1