version 3
run Experimentos-488-20260514-09:21:20-5861
attr configname Experimentos
attr datetime 20260514-09:21:20
attr datetimef 20260514-092120
attr experiment Experimentos
attr inifile TwoQueues.ini
attr iterationvars "$p=0.7, $q=0.2, $Y=10, $m=2"
attr iterationvarsd p=0.7/q=0.2/Y=10/m=2
attr iterationvarsf p=0.7,q=0.2,Y=10,m=2-
attr measurement "$p=0.7, $q=0.2, $Y=10, $m=2"
attr network TwoQueues
attr processid 5861
attr repetition 8
attr replication #8
attr resultdir results
attr runnumber 488
attr seedset 488
itervar Y 10
itervar m 2
itervar p 0.7
itervar q 0.2
config description "Barrido completo de parámetros Proyecto 12"
config **.source1.p 0.7
config **.source1.q 0.2
config **.source2.p 0.6
config **.source2.q 0.2
config **.serverWithMaintenance.Y 10
config **.serverWithMaintenance.m 2
config network TwoQueues
config cpu-time-limit 5000s
config sim-time-limit 5000s
config warmup-period 400s
config repeat 20
config output-scalar-file results/Experimentos-p=0.7,q=0.2,Y=10,m=2--#8.sca
config output-vector-file results/Experimentos-p=0.7,q=0.2,Y=10,m=2--#8.vec
config **.vector-recording true

vector 0 TwoQueues.serverWithMaintenance residenceTime2:vector ETV
attr recordingmode vector
attr source delay2
attr title "Residence Time Class 2"
vector 1 TwoQueues.queue2 queueLengthStats:vector ETV
attr recordingmode vector
attr source qlen
attr title "Average Queue Length"
vector 2 TwoQueues.queue1 queueLengthStats:vector ETV
attr recordingmode vector
attr source qlen
attr title "Average Queue Length"
vector 3 TwoQueues.server residenceTime1:vector ETV
attr recordingmode vector
attr source delay1
attr title "Residence Time Class 1"
vector 4 TwoQueues.server throughputStats1:vector ETV
attr recordingmode vector
attr source throughput1
attr title "Throughput Class 1"
0	2035	414	1
0	2106	432	1
0	2120	435	1
0	2201	454	1
0	2246	465	1
0	2279	473	1
0	2309	479	1
0	2384	497	1
0	2430	503	1
0	2531	521	1
0	2591	535	1
0	2666	550	1
0	2678	551	2
0	2724	557	1
0	2735	558	1
0	2756	562	1
0	2791	567	1
0	2843	577	1
0	2857	580	1
0	2963	613	1
0	2975	614	1
0	3028	623	1
0	3063	628	1
0	3118	639	1
0	3147	647	1
0	3165	651	1
0	3179	653	1
0	3229	663	1
0	3248	666	1
0	3264	668	1
0	3309	682	1
0	3332	687	1
0	3341	689	1
0	3358	692	1
0	3399	699	1
0	3413	702	1
0	3424	703	1
0	3435	704	2
0	3482	714	1
0	3509	719	1
0	3722	764	1
0	3731	766	1
0	3745	769	1
0	3773	772	1
0	3806	776	1
0	3817	777	2
0	3918	793	1
0	3932	796	1
0	3939	797	1
0	3952	799	1
0	3983	804	1
0	4032	816	1
0	4041	818	1
0	4066	825	1
0	4110	836	1
0	4167	848	1
0	4185	851	1
0	4271	869	1
0	4285	872	1
0	4301	874	1
0	4349	880	1
0	4375	883	1
0	4446	894	1
0	4479	901	1
0	4488	903	1
0	4499	905	1
0	4540	914	1
0	4551	917	1
0	4565	921	1
0	4574	922	2
0	4630	932	1
0	4678	939	1
0	4701	942	1
0	4828	962	1
0	4838	963	2
0	4874	967	1
0	4918	972	1
0	4928	973	2
0	4939	974	1
0	4981	979	1
0	5064	991	1
0	5074	992	2
0	5188	1014	1
0	5213	1018	1
0	5224	1019	1
0	5236	1021	1
0	5269	1027	1
0	5275	1028	2
0	5320	1038	1
0	5327	1039	1
0	5363	1047	1
0	5406	1056	1
0	5417	1057	1
0	5436	1060	4
0	5445	1061	4
0	5494	1072	1
0	5540	1085	1
0	5580	1095	1
0	5587	1096	1
0	5611	1099	1
0	5624	1100	1
0	5635	1101	1
0	5658	1105	1
0	5677	1108	3
0	5705	1117	1
0	5773	1131	1
0	5784	1133	1
0	5817	1138	1
0	5826	1140	1
0	5858	1146	1
0	5868	1147	1
0	5930	1157	1
0	5974	1169	1
0	5988	1173	1
0	6000	1175	1
0	6011	1176	2
0	6030	1179	1
0	6039	1181	1
0	6067	1185	1
0	6076	1187	1
0	6087	1190	1
0	6094	1191	1
0	6108	1195	1
0	6121	1198	4
0	6172	1211	1
0	6182	1212	1
0	6189	1213	1
0	6198	1215	1
0	6224	1222	1
0	6234	1223	1
0	6268	1229	1
0	6279	1230	2
0	6325	1236	1
0	6349	1239	1
0	6359	1240	1
0	6371	1241	1
0	6381	1242	2
0	6395	1245	1
0	6401	1246	2
0	6417	1249	1
0	6431	1252	1
0	6478	1258	1
0	6496	1260	1
0	6595	1279	1
0	6724	1306	1
0	6734	1307	1
0	6753	1311	1
0	6759	1312	2
0	6799	1324	1
0	6805	1325	2
0	6824	1331	1
0	6836	1333	1
0	6846	1335	1
0	6862	1338	4
0	6879	1343	1
0	6945	1359	1
0	6955	1360	2
0	6963	1361	2
0	6970	1362	1
0	6996	1370	1
0	7023	1375	1
0	7050	1381	1
0	7065	1384	1
0	7079	1387	4
0	7085	1388	4
0	7091	1389	4
0	7097	1390	5
0	7108	1391	1
0	7116	1392	2
0	7137	1396	1
0	7162	1400	1
0	7194	1410	1
0	7229	1416	1
0	7243	1419	1
0	7272	1426	1
0	7282	1427	1
0	7305	1432	1
0	7323	1434	1
0	7380	1442	1
0	7411	1448	1
0	7457	1458	1
0	7478	1462	1
0	7484	1463	2
0	7506	1466	3
0	7544	1472	1
0	7553	1473	2
0	7568	1477	1
0	7587	1480	1
0	7610	1483	1
0	7649	1495	1
0	7706	1507	1
0	7791	1526	1
0	7804	1530	1
0	7882	1547	1
0	7919	1552	1
0	7947	1557	1
0	8047	1577	1
0	8070	1580	1
0	8088	1582	1
0	8099	1583	1
0	8112	1584	1
0	8122	1585	2
0	8132	1586	1
0	8163	1595	1
0	8182	1598	1
0	8200	1602	1
0	8207	1603	1
0	8253	1611	1
0	8271	1614	1
0	8281	1615	1
0	8348	1626	1
0	8463	1646	1
0	8532	1658	1
0	8558	1661	3
0	8568	1662	2
0	8578	1663	1
0	8682	1689	1
0	8711	1694	1
0	8746	1698	1
0	8784	1703	1
0	8826	1711	1
0	8836	1712	1
0	8866	1718	1
0	8968	1741	1
0	8986	1743	1
0	9014	1747	1
0	9026	1749	1
0	9055	1755	1
0	9092	1761	1
0	9130	1766	1
0	9140	1767	2
0	9158	1770	1
0	9196	1778	1
0	9231	1785	1
0	9261	1791	1
0	9270	1793	1
0	9305	1803	1
0	9315	1804	1
0	9324	1805	1
0	9404	1822	1
0	9413	1823	2
0	9428	1827	1
0	9523	1843	1
0	9568	1854	1
0	9601	1863	1
0	9632	1867	1
0	9681	1878	1
0	9690	1880	1
0	9697	1881	1
0	9710	1885	1
0	9721	1887	1
0	9735	1889	1
0	9784	1901	1
0	9806	1905	1
0	9946	1935	1
0	10019	1953	1
0	10212	1994	1
0	10228	1996	1
0	10239	1998	1
0	10251	2000	1
0	10297	2008	1
0	10322	2018	1
0	10340	2022	1
0	10403	2038	1
0	10424	2041	1
0	10437	2045	1
0	10491	2057	1
0	10498	2058	1
0	10633	2082	1
0	10664	2086	1
0	10671	2087	1
0	10700	2091	1
0	10751	2098	1
0	10770	2101	4
0	10777	2102	1
0	10790	2106	1
0	10800	2107	1
0	10837	2115	1
0	10859	2118	1
0	10877	2122	1
0	10906	2128	1
0	10918	2130	1
0	10938	2135	1
0	10960	2138	1
0	10972	2140	1
0	10983	2141	1
0	11002	2146	1
0	11008	2147	2
0	11024	2150	1
0	11036	2153	1
0	11042	2154	2
0	11054	2155	1
0	11066	2156	2
0	11147	2176	1
0	11160	2179	1
0	11197	2185	1
0	11209	2187	1
0	11221	2188	1
0	11231	2189	2
0	11240	2190	1
0	11269	2197	1
0	11278	2199	1
0	11287	2201	1
0	11309	2205	1
0	11318	2206	2
0	11325	2207	1
0	11334	2208	1
0	11340	2209	2
0	11351	2210	3
0	11381	2214	1
0	11393	2215	1
0	11410	2217	1
0	11421	2219	1
0	11436	2222	3
0	11452	2226	1
0	11463	2227	2
0	11488	2233	1
0	11501	2237	1
0	11534	2244	1
0	11547	2245	1
0	11560	2246	2
0	11570	2247	2
0	11580	2248	3
0	11602	2251	1
0	11621	2253	1
0	11635	2255	1
0	11641	2256	2
0	11648	2257	3
0	11654	2258	2
0	11737	2277	1
0	11803	2289	1
0	11818	2290	1
0	11829	2291	1
0	11852	2294	1
0	11872	2299	1
0	11882	2301	1
0	11892	2302	2
0	11916	2305	1
0	11928	2307	1
0	11974	2322	1
0	11980	2323	2
0	12014	2330	1
0	12024	2332	1
0	12035	2335	4
0	12046	2337	1
0	12060	2339	1
0	12073	2340	1
0	12097	2343	1
0	12104	2344	2
0	12111	2345	2
0	12118	2346	2
0	12127	2347	2
0	12157	2355	1
0	12169	2358	4
0	12178	2359	5
0	12186	2360	3
0	12210	2366	1
0	12251	2375	1
0	12258	2376	1
0	12267	2378	1
0	12283	2381	1
0	12307	2384	1
0	12316	2385	2
0	12357	2394	1
0	12400	2402	1
0	12431	2407	1
0	12457	2415	1
0	12495	2424	1
0	12506	2427	1
0	12555	2439	1
0	12566	2442	1
0	12622	2459	1
0	12640	2463	1
0	12662	2466	3
0	12677	2469	1
0	12683	2470	2
0	12716	2480	1
0	12725	2481	2
0	12737	2483	1
0	12781	2495	1
0	12835	2504	1
0	12859	2507	1
0	12880	2511	1
0	12900	2517	1
0	12919	2520	1
0	12942	2524	1
0	12951	2526	1
0	12964	2530	1
0	12989	2533	1
0	13007	2535	1
0	13034	2539	1
0	13050	2543	1
0	13059	2545	1
0	13085	2548	2
0	13145	2559	1
0	13155	2560	1
0	13168	2564	1
0	13177	2566	1
0	13187	2567	1
0	13204	2572	1
0	13211	2573	1
0	13221	2574	1
0	13254	2582	1
0	13266	2585	2
0	13296	2590	1
0	13316	2595	1
0	13355	2602	1
0	13392	2610	1
0	13401	2611	2
0	13416	2615	1
0	13425	2617	1
0	13435	2618	1
0	13478	2627	1
0	13497	2630	3
0	13535	2638	1
0	13566	2642	1
0	13577	2645	1
0	13602	2650	1
0	13641	2662	1
0	13652	2663	1
0	13660	2664	2
0	13678	2668	1
0	13717	2682	1
0	13729	2685	4
0	13740	2686	2
0	13769	2692	1
0	13818	2700	1
0	13831	2704	1
0	13840	2706	1
0	13871	2713	1
0	13883	2714	1
0	13912	2721	1
0	13941	2729	1
0	13992	2738	1
0	14022	2744	1
0	14044	2750	1
0	14058	2753	1
0	14069	2754	1
0	14116	2761	1
0	14149	2766	1
0	14202	2775	1
0	14211	2776	2
0	14254	2784	1
0	14275	2787	2
0	14282	2788	2
0	14291	2789	2
0	14304	2791	1
0	14314	2792	1
0	14348	2799	1
0	14373	2804	1
0	14398	2809	1
0	14409	2812	1
0	14427	2815	1
0	14446	2818	3
0	14470	2822	1
0	14480	2823	1
0	14510	2832	1
0	14541	2839	1
0	14554	2840	1
0	14574	2844	1
0	14608	2850	1
0	14618	2851	1
0	14629	2854	1
0	14641	2857	3
0	14670	2861	1
0	14676	2862	2
0	14686	2863	1
0	14709	2867	1
0	14858	2902	1
0	14881	2907	1
0	14888	2908	1
0	14960	2920	1
0	14990	2925	1
0	15004	2928	4
0	15061	2938	1
0	15092	2947	1
0	15125	2952	1
0	15136	2953	1
0	15179	2963	1
0	15188	2965	1
0	15213	2969	1
0	15225	2971	1
0	15232	2972	1
0	15244	2975	2
0	15277	2981	1
0	15286	2982	2
0	15316	2988	1
0	15322	2989	2
0	15342	2994	1
0	15358	2997	1
0	15374	3000	1
0	15381	3001	1
0	15406	3005	1
0	15433	3008	1
0	15466	3018	1
0	15544	3037	1
0	15557	3040	1
0	15568	3041	1
0	15574	3042	2
0	15595	3047	1
0	15601	3048	2
0	15617	3050	1
0	15663	3056	1
0	15686	3059	4
0	15699	3061	1
0	15705	3062	2
0	15712	3063	1
0	15735	3069	1
0	15741	3070	2
0	15768	3075	1
0	15791	3079	1
0	15812	3082	1
0	15848	3091	1
0	15860	3094	1
0	15869	3096	1
0	15884	3099	1
0	15894	3100	2
0	15906	3101	1
0	15968	3113	1
0	15990	3118	1
0	16013	3123	1
0	16020	3124	1
0	16038	3128	1
0	16060	3131	2
0	16067	3132	1
0	16099	3143	1
0	16137	3151	1
0	16173	3160	1
0	16226	3174	1
0	16237	3177	1
0	16246	3179	1
0	16284	3187	1
0	16296	3189	1
0	16315	3192	1
0	16338	3196	1
0	16406	3211	1
0	16457	3221	1
0	16464	3222	2
0	16472	3223	2
0	16482	3224	2
0	16493	3225	3
0	16501	3226	2
0	16531	3232	1
0	16571	3237	1
0	16594	3242	1
0	16656	3254	1
0	16674	3256	1
0	16690	3260	1
0	16697	3261	1
0	16711	3263	1
0	16729	3266	1
0	16761	3273	1
0	16771	3274	1
0	16796	3277	3
0	16802	3278	2
0	16809	3279	1
0	16825	3282	1
0	16864	3289	1
0	16878	3291	1
0	16913	3297	1
0	16952	3304	1
0	16999	3314	1
0	17059	3323	1
0	17087	3330	1
0	17171	3357	1
0	17189	3360	1
0	17201	3362	1
0	17208	3363	1
0	17238	3373	1
0	17245	3374	1
0	17291	3386	1
0	17320	3391	1
0	17329	3392	2
0	17348	3395	1
0	17357	3397	1
0	17364	3398	1
0	17376	3400	1
0	17387	3401	1
0	17399	3402	1
0	17413	3404	1
0	17428	3406	1
0	17453	3409	1
0	17472	3412	1
0	17505	3417	1
0	17534	3420	1
0	17558	3423	1
0	17569	3424	1
0	17581	3426	1
0	17615	3433	1
0	17622	3434	1
0	17666	3446	1
0	17682	3448	1
0	17694	3449	1
0	17714	3452	2
0	17724	3453	2
0	17747	3456	1
0	17760	3460	1
0	17806	3466	1
0	17816	3467	2
0	17864	3477	1
0	17928	3494	1
0	17953	3499	1
0	17960	3500	1
0	17972	3503	2
0	17983	3506	1
0	18000	3511	1
0	18023	3516	1
0	18030	3517	1
0	18037	3518	1
0	18093	3527	1
0	18138	3535	1
0	18169	3539	1
0	18281	3560	1
0	18298	3563	1
0	18314	3565	1
0	18325	3566	1
0	18335	3567	2
0	18361	3572	1
0	18368	3573	1
0	18412	3584	1
0	18447	3592	1
0	18453	3593	2
0	18463	3594	1
0	18477	3597	2
0	18487	3598	1
0	18558	3611	1
0	18571	3612	1
0	18582	3613	2
0	18654	3628	1
0	18661	3629	1
0	18690	3637	1
0	18723	3644	1
0	18744	3647	1
0	18798	3659	1
0	18804	3660	2
0	18811	3661	1
0	18823	3663	1
0	18847	3666	1
0	18853	3667	2
0	18862	3669	1
0	18869	3670	1
0	18906	3681	1
0	18941	3691	1
0	18953	3694	3
0	18960	3695	1
0	18973	3697	1
0	18984	3698	1
0	19000	3700	1
0	19042	3711	1
0	19049	3712	1
0	19091	3718	1
0	19102	3719	1
0	19154	3729	1
0	19173	3732	4
0	19185	3733	2
0	19195	3734	2
0	19204	3735	2
0	19235	3744	1
0	19242	3745	2
0	19249	3746	2
0	19256	3747	2
0	19263	3748	2
0	19272	3749	2
0	19293	3752	3
0	19303	3753	1
0	19310	3754	1
0	19352	3761	1
0	19368	3763	1
0	19388	3767	1
0	19400	3769	1
0	19413	3773	1
0	19420	3774	1
0	19427	3775	1
0	19452	3778	3
0	19462	3779	4
0	19473	3780	2
0	19496	3783	1
0	19508	3785	1
0	19521	3789	1
0	19528	3790	1
0	19561	3795	1
0	19579	3798	1
0	19655	3815	1
0	19708	3826	1
0	19747	3834	1
0	19767	3838	1
0	19777	3839	1
0	19784	3840	1
0	19793	3842	1
0	19900	3863	1
0	19938	3868	1
0	19961	3871	1
0	19993	3878	1
0	20023	3883	1
0	20046	3888	1
0	20056	3889	1
0	20070	3892	1
0	20076	3893	2
0	20100	3896	1
0	20137	3901	1
0	20228	3920	1
0	20240	3921	2
0	20266	3924	1
0	20287	3927	4
0	20293	3928	4
0	20299	3929	4
0	20348	3941	1
0	20376	3950	1
0	20398	3956	1
0	20431	3962	1
0	20437	3963	2
0	20488	3971	1
0	20520	3976	1
0	20568	3988	1
0	20659	4006	1
0	20739	4021	1
0	20748	4023	1
0	20777	4030	1
0	20800	4037	1
0	20837	4045	1
0	20844	4046	1
0	20854	4047	1
0	20881	4050	1
0	20941	4060	1
0	20966	4064	1
0	20975	4066	1
0	20986	4069	1
0	21002	4072	1
0	21009	4073	1
0	21038	4078	1
0	21097	4087	1
0	21105	4088	1
0	21112	4089	2
0	21126	4092	4
0	21145	4094	1
0	21156	4095	2
0	21189	4100	1
0	21212	4104	1
0	21227	4109	1
0	21269	4119	1
0	21285	4121	1
0	21318	4127	1
0	21325	4128	1
0	21351	4138	1
0	21360	4140	1
0	21397	4146	1
0	21429	4152	1
0	21438	4154	1
0	21449	4156	1
0	21506	4169	1
0	21551	4178	1
0	21562	4179	1
0	21581	4181	1
0	21604	4184	1
0	21621	4186	1
0	21640	4188	1
0	21652	4189	1
0	21705	4196	1
0	21774	4211	1
0	21781	4212	2
0	21787	4213	2
0	21797	4214	1
0	21868	4227	1
0	21924	4237	1
0	21942	4239	1
0	21968	4245	1
0	21974	4246	2
0	22004	4251	1
0	22035	4259	1
0	22070	4269	1
0	22093	4275	1
0	22102	4276	2
0	22148	4283	1
0	22168	4286	3
0	22177	4287	3
0	22240	4301	1
0	22270	4305	1
0	22290	4310	1
0	22322	4317	1
0	22456	4344	1
0	22479	4347	1
0	22508	4351	1
0	22535	4356	1
0	22574	4364	1
0	22603	4372	1
0	22625	4376	1
0	22668	4381	1
0	22680	4382	1
0	22699	4384	1
0	22712	4385	1
0	22745	4389	1
0	22776	4393	1
0	22793	4395	1
0	22826	4399	1
0	22837	4400	1
0	22862	4406	1
0	22876	4408	1
0	22898	4412	1
0	22923	4415	1
0	22955	4420	1
0	23019	4434	1
0	23031	4435	2
0	23062	4441	1
0	23079	4444	3
0	23095	4447	1
0	23120	4451	1
0	23147	4457	1
0	23157	4458	1
0	23214	4473	1
0	23232	4478	1
0	23239	4479	1
0	23262	4484	1
0	23274	4485	1
0	23295	4488	4
0	23313	4493	1
0	23345	4503	1
0	23388	4511	1
0	23399	4512	2
0	23422	4515	1
0	23442	4520	1
0	23470	4529	1
0	23509	4537	1
0	23540	4542	1
0	23565	4546	1
0	23585	4551	1
0	23598	4555	1
0	23607	4557	1
0	23622	4559	1
0	23628	4560	2
0	23643	4564	1
0	23670	4570	1
0	23722	4587	1
0	23740	4593	1
0	23754	4596	4
0	23760	4597	4
0	23767	4598	3
0	23778	4599	4
0	23789	4600	3
0	23816	4606	1
0	23827	4609	1
0	23851	4615	1
0	23900	4628	1
0	23907	4629	1
0	23933	4634	1
0	23953	4639	1
0	23967	4642	1
0	23978	4643	1
0	24013	4649	1
0	24063	4657	1
0	24075	4658	1
0	24099	4661	1
0	24127	4666	1
0	24223	4684	1
0	24274	4697	1
0	24309	4704	1
0	24344	4712	1
0	24374	4719	1
0	24387	4723	1
0	24400	4727	1
0	24416	4730	1
0	24480	4743	1
0	24519	4748	1
0	24540	4752	1
0	24553	4755	1
0	24559	4756	2
0	24570	4759	1
0	24592	4764	1
0	24602	4765	1
0	24622	4769	1
0	24637	4771	1
0	24657	4775	1
0	24717	4789	1
0	24794	4803	1
0	24816	4806	4
0	24822	4807	4
0	24831	4809	1
0	24875	4817	1
0	24939	4827	1
0	24955	4831	1
0	25006	4839	1
0	25023	4845	1
0	25032	4847	1
0	25039	4848	1
0	25095	4858	1
0	25104	4860	1
0	25114	4861	1
0	25129	4865	1
0	25143	4867	1
0	25150	4868	1
0	25189	4874	1
0	25207	4878	1
0	25225	4883	1
0	25252	4889	1
0	25278	4893	1
0	25303	4898	1
0	25313	4899	1
0	25323	4900	1
0	25332	4901	1
0	25339	4902	1
0	25374	4912	1
0	25450	4935	1
0	25473	4938	1
0	25521	4946	1
0	25544	4949	4
0	25562	4953	1
0	25579	4958	1
0	25612	4963	1
0	25642	4968	1
0	25653	4971	1
0	25670	4974	1
0	25676	4975	2
0	25698	4980	1
0	25708	4981	1
0	25736	4987	1
1	2027	413	1
1	2027	413	0
1	2100	431	1
1	2100	431	0
1	2116	434	1
1	2116	434	0
1	2195	453	1
1	2195	453	0
1	2242	464	1
1	2242	464	0
1	2273	472	1
1	2273	472	0
1	2303	478	1
1	2303	478	0
1	2375	496	1
1	2375	496	0
1	2421	502	1
1	2421	502	0
1	2522	520	1
1	2522	520	0
1	2585	534	1
1	2585	534	0
1	2657	549	1
1	2657	549	0
1	2658	549	1
1	2671	550	0
1	2717	556	1
1	2717	556	0
1	2726	557	1
1	2728	557	0
1	2750	561	1
1	2750	561	0
1	2785	566	1
1	2785	566	0
1	2836	576	1
1	2836	576	0
1	2853	579	1
1	2853	579	0
1	2954	612	1
1	2954	612	0
1	2965	613	1
1	2968	613	0
1	3024	622	1
1	3024	622	0
1	3054	627	1
1	3054	627	0
1	3112	638	1
1	3112	638	0
1	3143	646	1
1	3143	646	0
1	3159	650	1
1	3159	650	0
1	3173	652	1
1	3173	652	0
1	3225	662	1
1	3225	662	0
1	3241	665	1
1	3241	665	0
1	3258	667	1
1	3258	667	0
1	3303	681	1
1	3303	681	0
1	3328	686	1
1	3328	686	0
1	3337	688	1
1	3337	688	0
1	3354	691	1
1	3354	691	0
1	3393	698	1
1	3393	698	0
1	3409	701	1
1	3409	701	0
1	3414	702	1
1	3415	702	2
1	3418	702	1
1	3429	703	0
1	3478	713	1
1	3478	713	0
1	3501	718	1
1	3501	718	0
1	3718	763	1
1	3718	763	0
1	3727	765	1
1	3727	765	0
1	3738	768	1
1	3738	768	0
1	3765	771	1
1	3765	771	0
1	3798	775	1
1	3798	775	0
1	3799	775	1
1	3810	776	0
1	3911	792	1
1	3911	792	0
1	3928	795	1
1	3928	795	0
1	3933	796	1
1	3935	796	0
1	3944	798	1
1	3944	798	0
1	3979	803	1
1	3979	803	0
1	4026	815	1
1	4026	815	0
1	4037	817	1
1	4037	817	0
1	4062	824	1
1	4062	824	0
1	4104	835	1
1	4104	835	0
1	4163	847	1
1	4163	847	0
1	4177	850	1
1	4177	850	0
1	4264	868	1
1	4264	868	0
1	4281	871	1
1	4281	871	0
1	4294	873	1
1	4294	873	0
1	4342	879	1
1	4342	879	0
1	4368	882	1
1	4368	882	0
1	4439	893	1
1	4439	893	0
1	4473	900	1
1	4473	900	0
1	4484	902	1
1	4484	902	0
1	4493	904	1
1	4493	904	0
1	4536	913	1
1	4536	913	0
1	4547	916	1
1	4547	916	0
1	4560	920	1
1	4560	920	0
1	4561	920	1
1	4568	921	0
1	4623	931	1
1	4623	931	0
1	4671	938	1
1	4671	938	0
1	4695	941	1
1	4695	941	0
1	4820	961	1
1	4820	961	0
1	4821	961	1
1	4831	962	0
1	4867	966	1
1	4867	966	0
1	4909	971	1
1	4909	971	0
1	4910	971	1
1	4921	972	0
1	4930	973	1
1	4932	973	0
1	4974	978	1
1	4974	978	0
1	5056	990	1
1	5056	990	0
1	5057	990	1
1	5067	991	0
1	5182	1013	1
1	5182	1013	0
1	5206	1017	1
1	5206	1017	0
1	5215	1018	1
1	5217	1018	0
1	5232	1020	1
1	5232	1020	0
1	5264	1026	1
1	5264	1026	0
1	5265	1026	1
1	5271	1027	0
1	5316	1037	1
1	5316	1037	0
1	5321	1038	1
1	5323	1038	0
1	5359	1046	1
1	5359	1046	0
1	5402	1055	1
1	5402	1055	0
1	5407	1056	1
1	5408	1056	2
1	5411	1056	1
1	5418	1057	2
1	5432	1059	1
1	5439	1060	0
1	5490	1071	1
1	5490	1071	0
1	5536	1084	1
1	5536	1084	0
1	5574	1094	1
1	5574	1094	0
1	5581	1095	1
1	5583	1095	0
1	5604	1098	1
1	5604	1098	0
1	5613	1099	1
1	5617	1099	0
1	5626	1100	1
1	5628	1100	0
1	5651	1104	1
1	5651	1104	0
1	5660	1105	1
1	5673	1107	0
1	5699	1116	1
1	5699	1116	0
1	5769	1130	1
1	5769	1130	0
1	5778	1132	1
1	5778	1132	0
1	5813	1137	1
1	5813	1137	0
1	5822	1139	1
1	5822	1139	0
1	5852	1145	1
1	5852	1145	0
1	5859	1146	1
1	5862	1146	0
1	5924	1156	1
1	5924	1156	0
1	5970	1168	1
1	5970	1168	0
1	5984	1172	1
1	5984	1172	0
1	5993	1174	1
1	5993	1174	0
1	5994	1174	1
1	6004	1175	0
1	6024	1178	1
1	6024	1178	0
1	6035	1180	1
1	6035	1180	0
1	6061	1184	1
1	6061	1184	0
1	6072	1186	1
1	6072	1186	0
1	6083	1189	1
1	6083	1189	0
1	6088	1190	1
1	6090	1190	0
1	6103	1194	1
1	6103	1194	0
1	6104	1194	1
1	6115	1197	0
1	6165	1210	1
1	6165	1210	0
1	6174	1211	1
1	6176	1211	0
1	6183	1212	1
1	6185	1212	0
1	6194	1214	1
1	6194	1214	0
1	6218	1221	1
1	6218	1221	0
1	6226	1222	1
1	6228	1222	0
1	6259	1228	1
1	6259	1228	0
1	6260	1228	1
1	6272	1229	0
1	6318	1235	1
1	6318	1235	0
1	6342	1238	1
1	6342	1238	0
1	6351	1239	1
1	6353	1239	0
1	6360	1240	1
1	6361	1240	2
1	6365	1240	1
1	6375	1241	0
1	6390	1244	1
1	6390	1244	0
1	6391	1244	1
1	6397	1245	0
1	6413	1248	1
1	6413	1248	0
1	6424	1251	1
1	6424	1251	0
1	6471	1257	1
1	6471	1257	0
1	6488	1259	1
1	6488	1259	0
1	6589	1278	1
1	6589	1278	0
1	6716	1305	1
1	6716	1305	0
1	6726	1306	1
1	6728	1306	0
1	6746	1310	1
1	6746	1310	0
1	6747	1310	1
1	6755	1311	0
1	6794	1323	1
1	6794	1323	0
1	6795	1323	1
1	6801	1324	0
1	6818	1330	1
1	6818	1330	0
1	6832	1332	1
1	6832	1332	0
1	6841	1334	1
1	6841	1334	0
1	6842	1334	1
1	6856	1337	0
1	6873	1342	1
1	6873	1342	0
1	6940	1358	1
1	6940	1358	0
1	6941	1358	1
1	6946	1359	2
1	6949	1359	1
1	6959	1360	0
1	6964	1361	1
1	6966	1361	0
1	6990	1369	1
1	6990	1369	0
1	7016	1374	1
1	7016	1374	0
1	7044	1380	1
1	7044	1380	0
1	7060	1383	1
1	7060	1383	0
1	7061	1383	1
1	7066	1384	2
1	7070	1385	3
1	7071	1385	4
1	7075	1386	3
1	7081	1387	2
1	7087	1388	1
1	7093	1389	0
1	7098	1390	1
1	7099	1390	2
1	7102	1390	1
1	7112	1391	0
1	7128	1395	1
1	7128	1395	0
1	7158	1399	1
1	7158	1399	0
1	7188	1409	1
1	7188	1409	0
1	7225	1415	1
1	7225	1415	0
1	7237	1418	1
1	7237	1418	0
1	7266	1425	1
1	7266	1425	0
1	7274	1426	1
1	7276	1426	0
1	7297	1431	1
1	7297	1431	0
1	7315	1433	1
1	7315	1433	0
1	7373	1441	1
1	7373	1441	0
1	7405	1447	1
1	7405	1447	0
1	7450	1457	1
1	7450	1457	0
1	7473	1461	1
1	7473	1461	0
1	7474	1461	1
1	7480	1462	0
1	7485	1463	1
1	7500	1465	0
1	7537	1471	1
1	7537	1471	0
1	7538	1471	1
1	7547	1472	0
1	7564	1476	1
1	7564	1476	0
1	7580	1479	1
1	7580	1479	0
1	7604	1482	1
1	7604	1482	0
1	7645	1494	1
1	7645	1494	0
1	7699	1506	1
1	7699	1506	0
1	7785	1525	1
1	7785	1525	0
1	7800	1529	1
1	7800	1529	0
1	7875	1546	1
1	7875	1546	0
1	7913	1551	1
1	7913	1551	0
1	7939	1556	1
1	7939	1556	0
1	8039	1576	1
1	8039	1576	0
1	8064	1579	1
1	8064	1579	0
1	8081	1581	1
1	8081	1581	0
1	8090	1582	1
1	8092	1582	0
1	8101	1583	1
1	8102	1583	2
1	8105	1583	1
1	8115	1584	0
1	8124	1585	1
1	8126	1585	0
1	8155	1594	1
1	8155	1594	0
1	8178	1597	1
1	8178	1597	0
1	8196	1601	1
1	8196	1601	0
1	8201	1602	1
1	8203	1602	0
1	8249	1610	1
1	8249	1610	0
1	8265	1613	1
1	8265	1613	0
1	8273	1614	1
1	8275	1614	0
1	8342	1625	1
1	8342	1625	0
1	8455	1645	1
1	8455	1645	0
1	8521	1657	1
1	8521	1657	0
1	8534	1658	1
1	8550	1660	0
1	8551	1660	1
1	8561	1661	0
1	8570	1662	1
1	8572	1662	0
1	8676	1688	1
1	8676	1688	0
1	8704	1693	1
1	8704	1693	0
1	8739	1697	1
1	8739	1697	0
1	8775	1702	1
1	8775	1702	0
1	8820	1710	1
1	8820	1710	0
1	8828	1711	1
1	8830	1711	0
1	8858	1717	1
1	8858	1717	0
1	8961	1740	1
1	8961	1740	0
1	8979	1742	1
1	8979	1742	0
1	9007	1746	1
1	9007	1746	0
1	9022	1748	1
1	9022	1748	0
1	9048	1754	1
1	9048	1754	0
1	9086	1760	1
1	9086	1760	0
1	9119	1765	1
1	9119	1765	0
1	9120	1765	1
1	9133	1766	0
1	9154	1769	1
1	9154	1769	0
1	9188	1777	1
1	9188	1777	0
1	9224	1784	1
1	9224	1784	0
1	9255	1790	1
1	9255	1790	0
1	9266	1792	1
1	9266	1792	0
1	9301	1802	1
1	9301	1802	0
1	9306	1803	1
1	9309	1803	0
1	9316	1804	1
1	9320	1804	0
1	9397	1821	1
1	9397	1821	0
1	9398	1821	1
1	9407	1822	0
1	9424	1826	1
1	9424	1826	0
1	9516	1842	1
1	9516	1842	0
1	9564	1853	1
1	9564	1853	0
1	9592	1862	1
1	9592	1862	0
1	9624	1866	1
1	9624	1866	0
1	9675	1877	1
1	9675	1877	0
1	9686	1879	1
1	9686	1879	0
1	9691	1880	1
1	9693	1880	0
1	9706	1884	1
1	9706	1884	0
1	9715	1886	1
1	9715	1886	0
1	9729	1888	1
1	9729	1888	0
1	9778	1900	1
1	9778	1900	0
1	9802	1904	1
1	9802	1904	0
1	9942	1934	1
1	9942	1934	0
1	10011	1952	1
1	10011	1952	0
1	10205	1993	1
1	10205	1993	0
1	10222	1995	1
1	10222	1995	0
1	10233	1997	1
1	10233	1997	0
1	10247	1999	1
1	10247	1999	0
1	10291	2007	1
1	10291	2007	0
1	10318	2017	1
1	10318	2017	0
1	10336	2021	1
1	10336	2021	0
1	10399	2037	1
1	10399	2037	0
1	10418	2040	1
1	10418	2040	0
1	10433	2044	1
1	10433	2044	0
1	10487	2056	1
1	10487	2056	0
1	10492	2057	1
1	10494	2057	0
1	10627	2081	1
1	10627	2081	0
1	10658	2085	1
1	10658	2085	0
1	10665	2086	1
1	10667	2086	0
1	10693	2090	1
1	10693	2090	0
1	10742	2097	1
1	10742	2097	0
1	10743	2097	1
1	10766	2100	0
1	10771	2101	1
1	10773	2101	0
1	10786	2105	1
1	10786	2105	0
1	10791	2106	1
1	10794	2106	0
1	10828	2114	1
1	10828	2114	0
1	10853	2117	1
1	10853	2117	0
1	10873	2121	1
1	10873	2121	0
1	10899	2127	1
1	10899	2127	0
1	10914	2129	1
1	10914	2129	0
1	10932	2134	1
1	10932	2134	0
1	10954	2137	1
1	10954	2137	0
1	10965	2139	1
1	10965	2139	0
1	10974	2140	1
1	10976	2140	0
1	10997	2145	1
1	10997	2145	0
1	10998	2145	1
1	11004	2146	0
1	11020	2149	1
1	11020	2149	0
1	11031	2152	1
1	11031	2152	0
1	11032	2152	1
1	11038	2153	0
1	11043	2154	1
1	11044	2154	2
1	11048	2154	1
1	11060	2155	0
1	11143	2175	1
1	11143	2175	0
1	11154	2178	1
1	11154	2178	0
1	11190	2184	1
1	11190	2184	0
1	11205	2186	1
1	11205	2186	0
1	11210	2187	1
1	11211	2187	2
1	11215	2187	1
1	11225	2188	0
1	11232	2189	1
1	11236	2189	0
1	11263	2196	1
1	11263	2196	0
1	11274	2198	1
1	11274	2198	0
1	11283	2200	1
1	11283	2200	0
1	11302	2204	1
1	11302	2204	0
1	11303	2204	1
1	11312	2205	0
1	11319	2206	1
1	11321	2206	0
1	11326	2207	1
1	11327	2207	2
1	11328	2207	3
1	11330	2207	2
1	11336	2208	1
1	11345	2209	0
1	11374	2213	1
1	11374	2213	0
1	11383	2214	1
1	11386	2214	0
1	11404	2216	1
1	11404	2216	0
1	11415	2218	1
1	11415	2218	0
1	11423	2219	1
1	11432	2221	0
1	11445	2225	1
1	11445	2225	0
1	11446	2225	1
1	11456	2226	0
1	11484	2232	1
1	11484	2232	0
1	11497	2236	1
1	11497	2236	0
1	11527	2243	1
1	11527	2243	0
1	11536	2244	1
1	11537	2244	2
1	11540	2244	1
1	11549	2245	2
1	11550	2245	3
1	11553	2245	2
1	11563	2246	1
1	11573	2247	0
1	11594	2250	1
1	11594	2250	0
1	11614	2252	1
1	11614	2252	0
1	11629	2254	1
1	11629	2254	0
1	11630	2254	1
1	11631	2254	2
1	11637	2255	1
1	11642	2256	2
1	11644	2256	1
1	11650	2257	0
1	11733	2276	1
1	11733	2276	0
1	11796	2288	1
1	11796	2288	0
1	11805	2289	1
1	11811	2289	0
1	11820	2290	1
1	11822	2290	0
1	11846	2293	1
1	11846	2293	0
1	11868	2298	1
1	11868	2298	0
1	11877	2300	1
1	11877	2300	0
1	11878	2300	1
1	11886	2301	0
1	11909	2304	1
1	11909	2304	0
1	11924	2306	1
1	11924	2306	0
1	11969	2321	1
1	11969	2321	0
1	11970	2321	1
1	11976	2322	0
1	12008	2329	1
1	12008	2329	0
1	12019	2331	1
1	12019	2331	0
1	12020	2331	1
1	12031	2334	0
1	12040	2336	1
1	12040	2336	0
1	12054	2338	1
1	12054	2338	0
1	12062	2339	1
1	12066	2339	0
1	12090	2342	1
1	12090	2342	0
1	12091	2342	1
1	12098	2343	2
1	12100	2343	1
1	12105	2344	2
1	12107	2344	1
1	12112	2345	2
1	12114	2345	1
1	12121	2346	0
1	12151	2354	1
1	12151	2354	0
1	12152	2354	1
1	12153	2354	2
1	12164	2357	1
1	12165	2357	2
1	12172	2358	1
1	12182	2359	0
1	12204	2365	1
1	12204	2365	0
1	12245	2374	1
1	12245	2374	0
1	12252	2375	1
1	12254	2375	0
1	12263	2377	1
1	12263	2377	0
1	12277	2380	1
1	12277	2380	0
1	12299	2383	1
1	12299	2383	0
1	12300	2383	1
1	12310	2384	0
1	12350	2393	1
1	12350	2393	0
1	12390	2401	1
1	12390	2401	0
1	12425	2406	1
1	12425	2406	0
1	12453	2414	1
1	12453	2414	0
1	12489	2423	1
1	12489	2423	0
1	12502	2426	1
1	12502	2426	0
1	12549	2438	1
1	12549	2438	0
1	12562	2441	1
1	12562	2441	0
1	12614	2458	1
1	12614	2458	0
1	12634	2462	1
1	12634	2462	0
1	12642	2463	1
1	12655	2465	0
1	12672	2468	1
1	12672	2468	0
1	12673	2468	1
1	12679	2469	0
1	12709	2479	1
1	12709	2479	0
1	12710	2479	1
1	12719	2480	0
1	12730	2482	1
1	12730	2482	0
1	12774	2494	1
1	12774	2494	0
1	12828	2503	1
1	12828	2503	0
1	12852	2506	1
1	12852	2506	0
1	12876	2510	1
1	12876	2510	0
1	12894	2516	1
1	12894	2516	0
1	12913	2519	1
1	12913	2519	0
1	12938	2523	1
1	12938	2523	0
1	12947	2525	1
1	12947	2525	0
1	12960	2529	1
1	12960	2529	0
1	12980	2532	1
1	12980	2532	0
1	12999	2534	1
1	12999	2534	0
1	13027	2538	1
1	13027	2538	0
1	13046	2542	1
1	13046	2542	0
1	13055	2544	1
1	13055	2544	0
1	13069	2546	1
1	13077	2547	0
1	13139	2558	1
1	13139	2558	0
1	13147	2559	1
1	13149	2559	0
1	13164	2563	1
1	13164	2563	0
1	13173	2565	1
1	13173	2565	0
1	13178	2566	1
1	13181	2566	0
1	13200	2571	1
1	13200	2571	0
1	13205	2572	1
1	13207	2572	0
1	13212	2573	1
1	13215	2573	0
1	13250	2581	1
1	13250	2581	0
1	13258	2583	1
1	13262	2584	0
1	13290	2589	1
1	13290	2589	0
1	13312	2594	1
1	13312	2594	0
1	13349	2601	1
1	13349	2601	0
1	13385	2609	1
1	13385	2609	0
1	13386	2609	1
1	13395	2610	0
1	13412	2614	1
1	13412	2614	0
1	13421	2616	1
1	13421	2616	0
1	13426	2617	1
1	13429	2617	0
1	13471	2626	1
1	13471	2626	0
1	13480	2627	1
1	13493	2629	0
1	13528	2637	1
1	13528	2637	0
1	13560	2641	1
1	13560	2641	0
1	13573	2644	1
1	13573	2644	0
1	13596	2649	1
1	13596	2649	0
1	13635	2661	1
1	13635	2661	0
1	13642	2662	1
1	13643	2662	2
1	13646	2662	1
1	13656	2663	0
1	13674	2667	1
1	13674	2667	0
1	13712	2681	1
1	13712	2681	0
1	13713	2681	1
1	13724	2684	0
1	13725	2684	1
1	13734	2685	0
1	13763	2691	1
1	13763	2691	0
1	13812	2699	1
1	13812	2699	0
1	13827	2703	1
1	13827	2703	0
1	13836	2705	1
1	13836	2705	0
1	13863	2712	1
1	13863	2712	0
1	13873	2713	1
1	13876	2713	0
1	13906	2720	1
1	13906	2720	0
1	13937	2728	1
1	13937	2728	0
1	13984	2737	1
1	13984	2737	0
1	14016	2743	1
1	14016	2743	0
1	14040	2749	1
1	14040	2749	0
1	14051	2752	1
1	14051	2752	0
1	14060	2753	1
1	14062	2753	0
1	14112	2760	1
1	14112	2760	0
1	14140	2765	1
1	14140	2765	0
1	14195	2774	1
1	14195	2774	0
1	14196	2774	1
1	14205	2775	0
1	14248	2783	1
1	14248	2783	0
1	14261	2785	1
1	14268	2786	0
1	14269	2786	1
1	14276	2787	2
1	14278	2787	1
1	14285	2788	0
1	14298	2790	1
1	14298	2790	0
1	14306	2791	1
1	14308	2791	0
1	14344	2798	1
1	14344	2798	0
1	14369	2803	1
1	14369	2803	0
1	14392	2808	1
1	14392	2808	0
1	14405	2811	1
1	14405	2811	0
1	14419	2814	1
1	14419	2814	0
1	14429	2815	1
1	14438	2817	0
1	14466	2821	1
1	14466	2821	0
1	14471	2822	1
1	14474	2822	0
1	14504	2831	1
1	14504	2831	0
1	14534	2838	1
1	14534	2838	0
1	14543	2839	1
1	14547	2839	0
1	14570	2843	1
1	14570	2843	0
1	14600	2849	1
1	14600	2849	0
1	14610	2850	1
1	14612	2850	0
1	14625	2853	1
1	14625	2853	0
1	14630	2854	1
1	14637	2856	0
1	14663	2860	1
1	14663	2860	0
1	14664	2860	1
1	14672	2861	0
1	14677	2862	1
1	14680	2862	0
1	14702	2866	1
1	14702	2866	0
1	14852	2901	1
1	14852	2901	0
1	14877	2906	1
1	14877	2906	0
1	14882	2907	1
1	14884	2907	0
1	14953	2919	1
1	14953	2919	0
1	14983	2924	1
1	14983	2924	0
1	14984	2924	1
1	15000	2927	0
1	15053	2937	1
1	15053	2937	0
1	15088	2946	1
1	15088	2946	0
1	15117	2951	1
1	15117	2951	0
1	15127	2952	1
1	15129	2952	0
1	15175	2962	1
1	15175	2962	0
1	15184	2964	1
1	15184	2964	0
1	15207	2968	1
1	15207	2968	0
1	15221	2970	1
1	15221	2970	0
1	15226	2971	1
1	15228	2971	0
1	15236	2973	1
1	15240	2974	0
1	15272	2980	1
1	15272	2980	0
1	15273	2980	1
1	15280	2981	0
1	15311	2987	1
1	15311	2987	0
1	15312	2987	1
1	15318	2988	0
1	15338	2993	1
1	15338	2993	0
1	15352	2996	1
1	15352	2996	0
1	15370	2999	1
1	15370	2999	0
1	15375	3000	1
1	15377	3000	0
1	15398	3004	1
1	15398	3004	0
1	15426	3007	1
1	15426	3007	0
1	15460	3017	1
1	15460	3017	0
1	15540	3036	1
1	15540	3036	0
1	15551	3039	1
1	15551	3039	0
1	15559	3040	1
1	15560	3040	2
1	15562	3040	1
1	15570	3041	0
1	15590	3046	1
1	15590	3046	0
1	15591	3046	1
1	15597	3047	0
1	15606	3049	1
1	15606	3049	0
1	15655	3055	1
1	15655	3055	0
1	15656	3055	1
1	15679	3058	0
1	15694	3060	1
1	15694	3060	0
1	15695	3060	1
1	15701	3061	0
1	15706	3062	1
1	15708	3062	0
1	15730	3068	1
1	15730	3068	0
1	15731	3068	1
1	15737	3069	0
1	15761	3074	1
1	15761	3074	0
1	15784	3078	1
1	15784	3078	0
1	15804	3081	1
1	15804	3081	0
1	15844	3090	1
1	15844	3090	0
1	15856	3093	1
1	15856	3093	0
1	15865	3095	1
1	15865	3095	0
1	15876	3098	1
1	15876	3098	0
1	15877	3098	1