version 3
run Experimentos-950-20260508-20:06:25-32588
attr configname Experimentos
attr datetime 20260508-20:06:25
attr datetimef 20260508-200625
attr experiment Experimentos
attr inifile TwoQueues.ini
attr iterationvars "$p=0.7, $q=0.3, $Y=30, $m=5"
attr iterationvarsd p=0.7/q=0.3/Y=30/m=5
attr iterationvarsf p=0.7,q=0.3,Y=30,m=5-
attr measurement "$p=0.7, $q=0.3, $Y=30, $m=5"
attr network TwoQueues
attr processid 32588
attr repetition 10
attr replication #10
attr resultdir results
attr runnumber 950
attr seedset 950
itervar Y 30
itervar m 5
itervar p 0.7
itervar q 0.3
config description "Barrido completo de parámetros Proyecto 12"
config **.source1.p 0.7
config **.source1.q 0.2
config **.source2.p 0.6
config **.source2.q 0.3
config **.serverWithMaintenance.Y 30
config **.serverWithMaintenance.m 5
config network TwoQueues
config cpu-time-limit 5000s
config sim-time-limit 5000s
config warmup-period 400s
config repeat 20
config output-scalar-file results/Experimentos-p=0.7,q=0.3,Y=30,m=5--#10.sca
config output-vector-file results/Experimentos-p=0.7,q=0.3,Y=30,m=5--#10.vec
config **.vector-recording true

vector 0 TwoQueues.serverWithMaintenance residenceTime2:vector ETV
attr recordingmode vector
attr source delay2
attr title "Residence Time Class 2"
vector 1 TwoQueues.queue2 queueLengthStats:vector ETV
attr recordingmode vector
attr source qlen
attr title "Average Queue Length"
vector 2 TwoQueues.queue1 queueLengthStats:vector ETV
attr recordingmode vector
attr source qlen
attr title "Average Queue Length"
vector 3 TwoQueues.server residenceTime1:vector ETV
attr recordingmode vector
attr source delay1
attr title "Residence Time Class 1"
vector 4 TwoQueues.server throughputStats1:vector ETV
attr recordingmode vector
attr source throughput1
attr title "Throughput Class 1"
0	2362	404	1
0	2380	407	1
0	2398	410	1
0	2423	416	1
0	2433	417	1
0	2442	418	1
0	2514	434	1
0	2521	435	1
0	2534	439	1
0	2549	442	1
0	2561	443	2
0	2601	449	1
0	2611	450	1
0	2622	451	1
0	2630	452	2
0	2654	455	1
0	2663	456	2
0	2688	465	1
0	2698	466	1
0	2707	468	1
0	2716	470	1
0	2734	473	1
0	2760	477	1
0	2773	481	1
0	2792	484	1
0	2812	488	1
0	2827	492	1
0	2856	498	6
0	2865	499	6
0	2873	500	7
0	2880	501	4
0	2890	502	2
0	2903	503	1
0	2914	504	1
0	2933	507	1
0	2943	508	1
0	2963	512	1
0	2993	518	1
0	3000	519	1
0	3014	521	1
0	3043	528	1
0	3052	530	1
0	3075	535	1
0	3084	536	2
0	3094	538	1
0	3103	539	2
0	3133	547	1
0	3177	555	1
0	3186	557	1
0	3196	558	1
0	3237	565	1
0	3254	568	1
0	3263	569	2
0	3278	572	1
0	3291	574	1
0	3297	575	2
0	3324	578	1
0	3371	584	6
0	3382	585	4
0	3391	586	5
0	3401	587	3
0	3409	588	2
0	3420	589	1
0	3428	590	2
0	3436	591	1
0	3447	592	2
0	3458	593	2
0	3469	594	1
0	3501	599	1
0	3510	601	1
0	3528	604	1
0	3565	613	1
0	3574	614	2
0	3606	619	1
0	3613	620	1
0	3630	626	1
0	3656	631	1
0	3663	632	2
0	3675	633	2
0	3685	634	2
0	3732	641	1
0	3742	642	1
0	3767	647	1
0	3776	649	1
0	3801	654	1
0	3852	662	1
0	3885	671	1
0	3903	677	5
0	3916	680	1
0	3932	684	1
0	3941	686	1
0	3968	692	1
0	3975	693	1
0	4035	706	1
0	4047	707	1
0	4085	713	1
0	4114	719	1
0	4134	721	1
0	4150	723	1
0	4157	724	1
0	4188	732	1
0	4198	733	2
0	4230	739	1
0	4260	744	1
0	4271	745	1
0	4285	748	1
0	4297	751	1
0	4303	752	2
0	4321	756	1
0	4332	757	1
0	4347	759	1
0	4396	771	1
0	4403	772	1
0	4425	777	1
0	4435	778	1
0	4442	779	1
0	4452	780	1
0	4496	786	4
0	4505	787	4
0	4511	788	3
0	4555	800	1
0	4643	824	1
0	4658	829	1
0	4678	833	1
0	4692	835	1
0	4747	847	1
0	4777	851	1
0	4788	852	1
0	4819	856	1
0	4830	857	1
0	4836	858	2
0	4848	861	1
0	4855	862	2
0	4861	863	2
0	4876	865	1
0	4884	866	2
0	4890	867	2
0	4896	868	3
0	4903	869	1
0	4912	871	1
0	4942	877	1
0	4951	878	2
0	4962	879	1
0	4975	880	1
0	4986	881	2
0	4997	882	2
0	5009	883	1
0	5043	891	1
0	5080	897	1
0	5109	904	1
0	5135	912	1
0	5148	915	1
0	5181	921	1
0	5192	922	2
0	5199	923	2
0	5205	924	3
0	5211	925	3
0	5246	937	1
0	5255	938	2
0	5268	941	1
0	5293	944	1
0	5336	950	1
0	5349	954	1
0	5356	955	1
0	5374	959	1
0	5388	961	1
0	5404	963	1
0	5482	978	1
0	5520	987	1
0	5529	989	1
0	5541	991	1
0	5568	996	1
0	5578	997	1
0	5594	999	1
0	5601	1000	1
0	5629	1008	1
0	5641	1010	1
0	5677	1016	2
0	5697	1020	1
0	5742	1027	1
0	5781	1032	1
0	5792	1033	2
0	5802	1034	2
0	5836	1042	1
0	5849	1046	1
0	5889	1055	1
0	5970	1073	1
0	5981	1074	1
0	5991	1075	2
0	6002	1076	2
0	6011	1077	1
0	6022	1078	1
0	6030	1079	2
0	6039	1081	1
0	6080	1089	1
0	6173	1112	1
0	6184	1113	1
0	6193	1114	2
0	6213	1118	1
0	6231	1120	1
0	6248	1122	1
0	6269	1126	1
0	6300	1135	1
0	6338	1143	1
0	6347	1145	1
0	6364	1148	1
0	6370	1149	2
0	6446	1160	1
0	6462	1162	1
0	6469	1163	1
0	6476	1164	1
0	6485	1166	1
0	6505	1172	1
0	6546	1177	1
0	6558	1178	1
0	6590	1182	1
0	6613	1185	1
0	6624	1188	1
0	6640	1191	1
0	6649	1193	1
0	6660	1196	1
0	6672	1199	1
0	6681	1200	2
0	6696	1202	1
0	6706	1203	2
0	6741	1209	1
0	6750	1211	1
0	6759	1213	1
0	6781	1219	1
0	6805	1225	1
0	6827	1232	1
0	6855	1236	1
0	6872	1238	1
0	6884	1239	1
0	6905	1241	1
0	6915	1242	2
0	6925	1243	3
0	6952	1249	7
0	6958	1250	5
0	6967	1251	5
0	6978	1252	6
0	6986	1253	6
0	6995	1254	6
0	7015	1258	1
0	7042	1264	1
0	7049	1265	1
0	7065	1267	1
0	7084	1270	1
0	7108	1273	1
0	7133	1277	1
0	7146	1281	1
0	7153	1282	1
0	7210	1293	1
0	7219	1295	1
0	7229	1296	1
0	7238	1297	1
0	7250	1299	1
0	7303	1312	1
0	7318	1317	1
0	7329	1320	1
0	7353	1326	1
0	7376	1331	1
0	7390	1334	1
0	7417	1337	1
0	7439	1340	1
0	7453	1342	1
0	7460	1343	1
0	7490	1349	4
0	7496	1350	4
0	7502	1351	3
0	7512	1352	1
0	7523	1354	1
0	7534	1357	1
0	7601	1372	1
0	7613	1374	1
0	7641	1379	1
0	7667	1383	1
0	7673	1384	2
0	7680	1385	1
0	7698	1389	1
0	7711	1393	1
0	7735	1400	1
0	7760	1406	1
0	7769	1407	2
0	7780	1409	1
0	7792	1410	1
0	7817	1415	1
0	7835	1420	1
0	7854	1427	1
0	7861	1428	1
0	7871	1429	1
0	7894	1433	1
0	7956	1447	1
0	7982	1452	1
0	8001	1454	1
0	8012	1455	1
0	8022	1456	1
0	8046	1462	2
0	8052	1463	2
0	8085	1471	1
0	8095	1472	1
0	8102	1473	1
0	8109	1474	1
0	8119	1475	1
0	8166	1484	1
0	8179	1486	1
0	8189	1487	2
0	8238	1494	1
0	8260	1497	1
0	8267	1498	1
0	8292	1503	1
0	8305	1504	2
0	8317	1505	1
0	8360	1512	1
0	8387	1515	1
0	8424	1521	1
0	8435	1522	2
0	8525	1536	1
0	8566	1542	1
0	8572	1543	2
0	8579	1544	1
0	8595	1548	1
0	8607	1549	1
0	8631	1552	1
0	8641	1553	2
0	8651	1554	3
0	8657	1555	4
0	8688	1561	8
0	8701	1562	7
0	8710	1563	3
0	8716	1564	3
0	8722	1565	4
0	8733	1566	1
0	8753	1570	1
0	8760	1571	2
0	8770	1572	2
0	8787	1575	1
0	8815	1579	1
0	8863	1588	1
0	8897	1595	1
0	8914	1598	1
0	8920	1599	2
0	8944	1602	1
0	8968	1605	1
0	8977	1606	2
0	8989	1607	1
0	8998	1608	2
0	9007	1609	3
0	9013	1610	4
0	9019	1611	3
0	9026	1612	1
0	9033	1613	1
0	9040	1614	1
0	9085	1621	1
0	9091	1622	2
0	9125	1628	1
0	9146	1632	1
0	9169	1638	2
0	9180	1641	1
0	9224	1647	1
0	9299	1657	1
0	9326	1662	1
0	9381	1671	1
0	9390	1672	2
0	9400	1673	1
0	9406	1674	2
0	9415	1676	1
0	9426	1677	1
0	9434	1678	2
0	9453	1682	1
0	9459	1683	2
0	9469	1684	1
0	9494	1687	1
0	9517	1690	1
0	9556	1696	1
0	9563	1697	2
0	9572	1698	2
0	9587	1699	1
0	9598	1700	2
0	9609	1701	3
0	9620	1702	3
0	9633	1703	1
0	9645	1704	2
0	9666	1708	1
0	9676	1709	1
0	9683	1710	1
0	9740	1720	1
0	9783	1726	5
0	9789	1727	5
0	9795	1728	3
0	9828	1737	1
0	9852	1744	1
0	9862	1745	1
0	9889	1750	1
0	9913	1757	1
0	9949	1764	1
0	9966	1766	1
0	9975	1768	1
0	9985	1769	1
0	10002	1774	1
0	10054	1784	1
0	10066	1785	1
0	10076	1786	1
0	10131	1796	1
0	10164	1801	1
0	10236	1818	1
0	10242	1819	2
0	10266	1826	1
0	10273	1827	1
0	10292	1829	1
0	10310	1831	1
0	10323	1832	2
0	10354	1836	1
0	10366	1837	1
0	10377	1838	2
0	10404	1845	1
0	10415	1848	1
0	10438	1854	1
0	10451	1857	1
0	10465	1858	1
0	10495	1862	1
0	10501	1863	2
0	10510	1865	1
0	10527	1871	1
0	10548	1874	1
0	10567	1877	1
0	10580	1878	1
0	10609	1882	1
0	10618	1884	1
0	10654	1893	1
0	10663	1894	2
0	10706	1903	1
0	10727	1905	1
0	10759	1909	1
0	10770	1910	1
0	10790	1912	1
0	10809	1914	1
0	10828	1916	1
0	10845	1918	1
0	10879	1924	1
0	10888	1925	2
0	10904	1927	1
0	10911	1928	1
0	10918	1929	1
0	10930	1932	1
0	10936	1933	2
0	10947	1934	1
0	10997	1948	1
0	11004	1949	1
0	11085	1963	1
0	11131	1971	1
0	11151	1975	1
0	11160	1977	1
0	11169	1979	1
0	11179	1980	1
0	11190	1982	1
0	11197	1983	1
0	11204	1984	1
0	11262	1992	1
0	11274	1994	1
0	11288	1996	1
0	11321	2004	1
0	11331	2005	1
0	11348	2010	1
0	11358	2011	1
0	11366	2012	1
0	11373	2013	2
0	11384	2014	2
0	11397	2015	1
0	11408	2016	1
0	11442	2023	1
0	11459	2025	1
0	11477	2027	1
0	11498	2033	1
0	11507	2034	2
0	11546	2045	1
0	11556	2046	1
0	11597	2052	4
0	11603	2053	5
0	11618	2057	1
0	11664	2066	1
0	11676	2069	1
0	11682	2070	2
0	11700	2074	1
0	11713	2078	1
0	11731	2081	1
0	11743	2082	1
0	11749	2083	2
0	11755	2084	3
0	11771	2087	1
0	11780	2089	1
0	11789	2091	1
0	11815	2096	1
0	11829	2097	2
0	11839	2098	2
0	11850	2099	1
0	11861	2100	1
0	11883	2103	1
0	11890	2104	1
0	11897	2105	1
0	11915	2110	1
0	11950	2115	1
0	11960	2116	2
0	11967	2117	2
0	11976	2118	2
0	12013	2123	1
0	12024	2124	2
0	12055	2130	7
0	12065	2131	7
0	12071	2132	4
0	12077	2133	5
0	12086	2134	5
0	12098	2135	6
0	12108	2136	6
0	12119	2138	1
0	12129	2139	1
0	12138	2140	1
0	12145	2141	1
0	12208	2155	1
0	12226	2158	1
0	12269	2164	1
0	12307	2169	1
0	12338	2173	1
0	12364	2177	1
0	12385	2180	1
0	12398	2182	1
0	12410	2183	2
0	12425	2184	2
0	12435	2185	3
0	12446	2186	3
0	12463	2188	1
0	12508	2194	1
0	12518	2195	1
0	12532	2197	1
0	12612	2213	1
0	12621	2214	2
0	12629	2215	1
0	12677	2221	7
0	12687	2222	6
0	12700	2223	6
0	12710	2224	7
0	12720	2225	3
0	12737	2227	1
0	12748	2228	1
0	12787	2233	1
0	12801	2235	1
0	12829	2244	1
0	12839	2245	1
0	12855	2248	1
0	12906	2255	1
0	12923	2257	1
0	12948	2261	1
0	12963	2263	1
0	12997	2269	1
0	13008	2270	1
0	13021	2271	2
0	13033	2272	2
0	13043	2273	3
0	13052	2274	1
0	13059	2275	1
0	13067	2276	1
0	13078	2277	2
0	13089	2278	2
0	13107	2280	1
0	13151	2291	1
0	13160	2293	1
0	13176	2295	1
0	13230	2306	1
0	13269	2311	1
0	13344	2327	1
0	13365	2329	1
0	13392	2332	1
0	13404	2333	2
0	13414	2334	3
0	13439	2337	1
0	13458	2339	1
0	13494	2346	1
0	13506	2347	1
0	13520	2349	1
0	13530	2350	1
0	13552	2355	1
0	13571	2358	1
0	13588	2363	1
0	13613	2369	1
0	13642	2376	1
0	13672	2382	1
0	13706	2387	1
0	13725	2390	1
0	13750	2395	1
0	13775	2399	1
0	13807	2405	1
0	13862	2418	1
0	13868	2419	2
0	13888	2424	1
0	13906	2427	1
0	13920	2429	1
0	13932	2431	1
0	13966	2437	3
0	13976	2438	3
0	13986	2439	3
0	14027	2448	1
0	14039	2449	1
0	14051	2450	1
0	14075	2453	1
0	14091	2455	1
0	14148	2465	1
0	14160	2466	1
0	14173	2467	1
0	14182	2468	2
0	14192	2470	1
0	14198	2471	2
0	14207	2473	1
0	14224	2479	1
0	14234	2480	1
0	14260	2486	1
0	14307	2493	1
0	14328	2496	1
0	14337	2498	1
0	14371	2505	1
0	14378	2506	1
0	14423	2513	1
0	14429	2514	2
0	14438	2516	1
0	14445	2517	1
0	14465	2522	1
0	14475	2523	1
0	14487	2524	1
0	14523	2530	6
0	14532	2531	3
0	14543	2533	1
0	14550	2534	1
0	14557	2535	1
0	14572	2537	1
0	14578	2538	2
0	14592	2541	1
0	14615	2545	1
0	14644	2550	1
0	14654	2551	1
0	14679	2556	1
0	14718	2563	1
0	14725	2564	1
0	14736	2567	1
0	14743	2568	1
0	14796	2582	1
0	14834	2587	1
0	14854	2591	1
0	14879	2596	1
0	14886	2597	1
0	14902	2600	1
0	14915	2601	1
0	14925	2602	2
0	14974	2615	1
0	15026	2626	1
0	15036	2627	1
0	15063	2633	1
0	15086	2637	1
0	15104	2641	1
0	15124	2647	6
0	15130	2648	4
0	15139	2649	3
0	15152	2650	1
0	15188	2655	1
0	15200	2656	1
0	15259	2668	1
0	15280	2675	1
0	15310	2681	1
0	15331	2684	1
0	15341	2685	1
0	15361	2687	1
0	15392	2692	1
0	15399	2693	1
0	15431	2699	1
0	15444	2703	1
0	15453	2705	1
0	15470	2710	1
0	15483	2712	1
0	15489	2713	2
0	15564	2728	1
0	15574	2729	1
0	15587	2732	1
0	15594	2733	1
0	15636	2739	1
0	15653	2741	1
0	15669	2743	1
0	15684	2748	1
0	15694	2749	1
0	15720	2752	1
0	15753	2758	4
0	15763	2759	2
0	15771	2760	3
0	15777	2761	4
0	15783	2762	4
0	15794	2765	1
0	15802	2766	1
0	15808	2767	2
0	15818	2769	1
0	15828	2770	2
0	15839	2771	2
0	15850	2773	1
0	15857	2774	1
0	15864	2775	1
0	15887	2778	1
0	15918	2782	1
0	15947	2789	1
0	15958	2790	1
0	15966	2791	2
0	15981	2793	1
0	15987	2794	2
0	15994	2795	1
0	16018	2799	1
0	16024	2800	2
0	16067	2810	1
0	16090	2813	1
0	16107	2815	1
0	16123	2817	1
0	16130	2818	1
0	16145	2823	1
0	16170	2829	6
0	16179	2830	4
0	16191	2831	3
0	16199	2832	2
0	16209	2834	1
0	16215	2835	2
0	16231	2837	1
0	16259	2843	1
0	16280	2846	1
0	16310	2850	1
0	16326	2853	1
0	16349	2857	1
0	16399	2869	1
0	16405	2870	2
0	16412	2871	1
0	16422	2872	1
0	16434	2873	1
0	16457	2876	1
0	16464	2877	1
0	16501	2882	1
0	16516	2884	1
0	16526	2885	2
0	16532	2886	2
0	16541	2888	1
0	16548	2889	1
0	16565	2895	1
0	16611	2904	1
0	16620	2905	2
0	16643	2909	1
0	16652	2911	1
0	16712	2922	1
0	16731	2924	1
0	16743	2926	1
0	16754	2929	1
0	16788	2936	1
0	16802	2938	1
0	16818	2941	1
0	16848	2946	1
0	16858	2948	1
0	16867	2949	2
0	16882	2952	1
0	16905	2957	1
0	16934	2963	1
0	16968	2971	1
0	16976	2972	1
0	16986	2973	2
0	17005	2977	1
0	17036	2981	1
0	17048	2982	1
0	17060	2983	1
0	17069	2984	2
0	17114	2990	1
0	17161	3000	1
0	17254	3020	1
0	17294	3027	1
0	17324	3033	1
0	17346	3039	1
0	17360	3041	1
0	17396	3047	1
0	17421	3050	1
0	17456	3056	7
0	17462	3057	7
0	17469	3058	3
0	17475	3059	2
0	17493	3063	1
0	17500	3064	1
0	17509	3066	1
0	17527	3070	1
0	17547	3075	1
0	17579	3080	1
0	17594	3082	1
0	17603	3083	2
0	17618	3085	1
0	17624	3086	2
0	17631	3087	1
0	17638	3088	1
0	17660	3092	1
0	17670	3093	2
0	17698	3098	1
0	17705	3099	1
0	17712	3100	1
0	17737	3110	1
0	17746	3112	1
0	17758	3114	1
0	17767	3115	2
0	17774	3116	1
0	17790	3119	1
0	17800	3120	1
0	17810	3121	1
0	17817	3122	2
0	17848	3128	7
0	17859	3129	6
0	17868	3130	3
0	17878	3131	1
0	17887	3132	1
0	17903	3135	1
0	17917	3137	1
0	17926	3139	1
0	17958	3145	1
0	17969	3147	1
0	17983	3150	1
0	17990	3151	1
0	18006	3154	1
0	18013	3155	1
0	18024	3158	1
0	18037	3162	1
0	18080	3169	1
0	18118	3175	1
0	18138	3181	1
0	18147	3182	2
0	18163	3186	1
0	18176	3187	2
0	18186	3188	2
0	18192	3189	3
0	18202	3190	3
0	18211	3191	2
0	18217	3192	2
0	18259	3204	1
0	18271	3205	1
0	18282	3206	2
0	18329	3216	1
0	18340	3217	1
0	18350	3218	1
0	18379	3222	1
0	18385	3223	2
0	18399	3225	1
0	18430	3233	1
0	18477	3240	1
0	18496	3242	1
0	18541	3250	1
0	18551	3251	1
0	18558	3252	1
0	18569	3255	1
0	18597	3264	1
0	18604	3265	1
0	18615	3266	1
0	18623	3267	2
0	18672	3273	1
0	18708	3278	1
0	18719	3279	1
0	18735	3282	1
0	18777	3289	1
0	18818	3296	1
0	18855	3302	1
0	18865	3303	1
0	18876	3305	1
0	18908	3312	1
0	18932	3319	1
0	18943	3321	1
0	18968	3325	1
0	19016	3332	1
0	19045	3338	1
0	19064	3340	1
0	19134	3350	1
0	19159	3353	1
0	19168	3354	2
0	19185	3356	1
0	19217	3360	1
0	19229	3361	1
0	19242	3363	1
0	19248	3364	2
0	19259	3367	1
0	19290	3372	1
0	19299	3373	2
0	19335	3379	1
0	19345	3380	1
0	19402	3391	1
0	19434	3402	1
0	19447	3405	1
0	19482	3411	1
0	19492	3412	2
0	19531	3418	1
0	19542	3420	1
0	19568	3423	1
0	19582	3426	1
0	19595	3430	1
0	19606	3433	1
0	19630	3440	1
0	19684	3448	1
0	19693	3449	2
0	19736	3460	1
0	19749	3463	1
0	19759	3464	1
0	19798	3472	1
0	19845	3479	1
0	19851	3480	2
0	19863	3483	1
0	19872	3484	2
0	19895	3487	1
0	19917	3493	1
0	19933	3495	1
0	19943	3496	1
0	19950	3497	1
0	19967	3502	1
0	19977	3503	1
0	19986	3505	1
0	19993	3506	1
0	20002	3508	1
0	20023	3515	1
0	20062	3522	1
0	20073	3523	1
0	20079	3524	2
0	20111	3530	1
0	20127	3534	1
0	20152	3537	1
0	20171	3539	1
0	20181	3540	1
0	20192	3541	1
0	20200	3542	2
0	20216	3544	1
0	20250	3550	5
0	20256	3551	4
0	20263	3552	5
0	20269	3553	6
0	20279	3554	3
0	20296	3556	1
0	20306	3557	1
0	20314	3558	1
0	20320	3559	2
0	20329	3561	1
0	20338	3563	1
0	20345	3564	1
0	20354	3566	1
0	20367	3570	1
0	20383	3573	1
0	20390	3574	1
0	20397	3575	1
0	20407	3576	1
0	20429	3580	1
0	20461	3587	1
0	20468	3588	1
0	20485	3591	1
0	20491	3592	2
0	20520	3600	1
0	20536	3602	1
0	20567	3610	1
0	20582	3615	1
0	20595	3619	1
0	20631	3625	1
0	20681	3632	1
0	20728	3640	1
0	20739	3643	1
0	20766	3648	1
0	20790	3655	1
0	20815	3660	1
0	20825	3661	1
0	20832	3662	1
0	20839	3663	1
0	20860	3670	1
0	20871	3671	1
0	20880	3672	2
0	20886	3673	2
0	20892	3674	3
0	20898	3675	4
0	20921	3683	1
0	20944	3688	1
0	20975	3696	1
0	20989	3698	1
0	21010	3703	1
0	21016	3704	2
0	21026	3705	1
0	21035	3706	1
0	21042	3707	1
0	21049	3708	1
0	21056	3709	1
0	21097	3718	1
0	21121	3724	1
0	21128	3725	1
0	21135	3726	1
0	21144	3728	1
0	21169	3734	5
0	21175	3735	4
0	21184	3736	4
0	21202	3740	1
0	21213	3741	1
0	21228	3744	1
0	21235	3745	2
0	21241	3746	2
0	21251	3747	1
0	21260	3748	1
0	21273	3751	1
0	21290	3755	1
0	21300	3756	2
0	21311	3757	1
0	21320	3758	1
0	21327	3759	1
0	21334	3760	1
0	21349	3764	1
0	21361	3765	1
0	21377	3767	1
0	21423	3776	1
0	21434	3777	1
0	21445	3778	2
0	21453	3779	2
0	21460	3780	3
0	21469	3781	2
0	21486	3785	1
0	21537	3799	1
0	21552	3803	1
0	21566	3805	1
0	21598	3811	6
0	21607	3812	5
0	21648	3818	1
0	21660	3820	1
0	21676	3823	1
0	21698	3826	1
0	21705	3827	2
0	21711	3828	2
0	21727	3830	1
0	21733	3831	2
0	21740	3832	3
0	21749	3833	2
0	21758	3834	1
0	21769	3837	1
0	21811	3844	1
0	21820	3845	2
0	21838	3849	1
0	21854	3853	1
0	21867	3854	2
0	21879	3855	2
0	21891	3856	3
0	21902	3857	3
0	21911	3858	3
0	21922	3860	1
0	21932	3861	1
0	21954	3864	1
0	21960	3865	2
0	21977	3871	1
0	21988	3873	1
0	22008	3876	1
0	22040	3882	7
0	22054	3884	1
0	22066	3886	1
0	22078	3887	2
0	22098	3891	1
0	22117	3895	1
0	22123	3896	2
0	22134	3899	1
0	22169	3909	1
0	22176	3910	1
0	22198	3916	1
0	22221	3919	1
0	22231	3920	1
0	22239	3921	1
0	22245	3922	2
0	22265	3927	1
0	22278	3930	1
0	22297	3933	1
0	22359	3942	1
0	22371	3943	1
0	22382	3944	2
0	22395	3945	2
0	22404	3946	2
0	22410	3947	3
0	22423	3951	1
0	22434	3954	1
0	22450	3956	1
0	22468	3958	1
0	22474	3959	2
0	22507	3967	1
0	22572	3982	1
0	22578	3983	2
0	22592	3987	1
0	22601	3988	2
0	22610	3989	2
0	22622	3990	3
0	22630	3991	4
0	22636	3992	3
0	22647	3995	1
0	22674	4000	1
0	22695	4003	1
0	22715	4005	1
0	22728	4006	1
0	22740	4007	1
0	22750	4008	2
0	22766	4012	1
0	22778	4014	1
0	22836	4026	1
0	22859	4031	1
0	22872	4035	1
0	22892	4040	1
0	22909	4046	1
0	22916	4047	1
0	22956	4056	1
0	23037	4069	1
0	23053	4071	1
0	23078	4074	1
0	23106	4082	1
0	23133	4088	1
0	23149	4091	1
0	23171	4097	3
0	23181	4098	3
0	23198	4100	1
0	23241	4109	1
0	23276	4118	1
0	23287	4119	1
0	23296	4120	2
0	23309	4123	1
0	23320	4126	1
0	23339	4131	1
0	23350	4132	1
0	23361	4133	1
0	23388	4136	1
0	23408	4139	1
0	23434	4142	1
0	23454	4147	1
0	23498	4155	1
0	23506	4156	1
0	23512	4157	2
0	23521	4159	1
0	23529	4160	1
0	23535	4161	2
0	23544	4163	1
0	23586	4171	1
0	23592	4172	2
0	23607	4174	1
0	23614	4175	2
0	23620	4176	2
0	23628	4177	1
0	23634	4178	2
0	23657	4184	4
0	23668	4186	1
0	23707	4193	1
0	23743	4201	1
0	23758	4203	1
0	23767	4204	2
0	23783	4206	1
0	23802	4210	1
0	23811	4211	2
0	23831	4216	1
0	23838	4217	1
0	23856	4220	1
0	23868	4222	1
0	23877	4224	1
0	23896	4228	1
0	23907	4229	2
0	23919	4230	2
0	23929	4231	3
0	23938	4232	1
0	23949	4235	1
0	23960	4238	1
0	23973	4241	1
0	23986	4242	1
0	24016	4246	1
0	24026	4247	1
0	24049	4251	1
0	24103	4260	1
0	24127	4263	1
0	24139	4265	1
0	24146	4266	1
0	24169	4272	5
0	24181	4274	1
0	24190	4275	2
0	24219	4281	1
0	24234	4284	1
0	24240	4285	2
0	24259	4288	1
0	24356	4304	1
0	24376	4308	1
0	24388	4309	1
0	24404	4311	1
0	24416	4313	1
0	24425	4315	1
0	24459	4322	1
0	24478	4324	1
0	24488	4325	2
0	24497	4326	3
0	24533	4334	1
0	24551	4336	1
0	24562	4337	1
0	24578	4339	1
0	24608	4344	1
0	24619	4346	1
0	24629	4347	1
0	24684	4358	1
0	24702	4360	1
0	24733	4364	1
0	24745	4367	1
0	24752	4368	2
0	24761	4369	2
0	24803	4375	2
0	24813	4376	1
0	24831	4380	1
0	24841	4381	1
0	24888	4387	1
0	24899	4388	1
0	24920	4392	1
0	24931	4393	1
0	24944	4394	2
0	24954	4395	2
0	24980	4402	1
0	25009	4408	1
0	25041	4415	1
0	25060	4422	1
0	25080	4427	1
0	25087	4428	1
0	25096	4430	1
0	25103	4431	1
0	25114	4433	1
0	25146	4440	1
0	25161	4444	1
0	25189	4448	1
0	25199	4449	1
0	25226	4459	1
0	25250	4466	1
0	25262	4468	1
0	25273	4471	1
0	25283	4472	1
0	25292	4473	1
0	25321	4479	1
0	25347	4485	3
0	25373	4491	1
0	25418	4498	1
0	25460	4505	1
0	25471	4506	2
0	25485	4509	1
0	25492	4510	1
0	25509	4512	1
0	25522	4513	2
0	25533	4514	2
0	25542	4515	3
0	25653	4540	1
0	25670	4542	1
0	25695	4546	1
0	25701	4547	2
0	25713	4549	1
0	25755	4556	1
0	25761	4557	2
0	25770	4559	1
0	25781	4560	1
0	25806	4563	1
0	25825	4565	1
0	25837	4566	1
0	25848	4567	1
0	25869	4571	1
0	25922	4585	1
0	25933	4588	1
0	25954	4593	1
0	25961	4594	2
0	25968	4595	2
0	25995	4601	7
0	26005	4602	7
0	26012	4603	6
0	26018	4604	5
0	26024	4605	4
0	26030	4606	4
0	26037	4607	1
0	26077	4613	1
0	26087	4614	2
0	26159	4624	1
0	26188	4630	1
0	26195	4631	1
0	26213	4634	1
0	26224	4635	1
0	26230	4636	2
0	26243	4639	1
0	26264	4643	1
0	26275	4645	1
0	26287	4647	1
0	26330	4656	1
0	26359	4668	1
0	26388	4675	1
0	26463	4697	1
0	26469	4698	2
0	26483	4700	1
0	26499	4703	1
0	26525	4711	1
0	26536	4712	1
0	26554	4714	1
0	26563	4715	2
0	26588	4721	5
0	26597	4722	4
0	26605	4723	3
0	26612	4724	1
0	26625	4728	1
0	26722	4744	1
0	26732	4745	1
0	26741	4746	1
0	26748	4747	1
0	26759	4749	1
0	26771	4750	1
0	26781	4751	1
0	26790	4752	1
0	26796	4753	2
0	26802	4754	3
0	26845	4761	1
0	26863	4763	1
0	26897	4767	1
0	26916	4769	1
0	26933	4771	1
0	26954	4776	1
0	26972	4778	1
0	26990	4782	1
0	27002	4784	1
0	27009	4785	1
0	27020	4787	1
0	27032	4788	1
0	27043	4789	1
0	27049	4790	2
0	27128	4811	1
0	27169	4818	1
0	27178	4819	2
0	27194	4822	1
0	27202	4823	1
0	27212	4824	2
0	27220	4825	2
0	27229	4827	1
0	27238	4829	1
0	27271	4836	1
0	27282	4837	2
0	27295	4838	2
0	27305	4839	2
0	27319	4842	1
0	27330	4845	1
0	27414	4863	1
0	27425	4864	1
0	27453	4869	1
0	27460	4870	1
0	27483	4874	1
0	27491	4875	1
0	27500	4876	2
0	27509	4877	1
0	27523	4880	1
0	27563	4889	1
0	27603	4894	1
0	27614	4895	1
0	27650	4900	1
0	27689	4910	1
0	27734	4918	1
0	27788	4929	1
0	27808	4935	6
0	27821	4936	7
0	27833	4937	3
0	27843	4938	2
0	27871	4942	1
0	27878	4943	2
0	27884	4944	2
0	27899	4948	1
0	27911	4950	1
0	27920	4952	1
0	27951	4959	1
0	27976	4965	1
0	27987	4968	1
0	28039	4981	1
0	28048	4982	2
0	28057	4983	1
0	28091	4990	1
0	28109	4992	1
0	28126	4994	1
1	2355	403	1
1	2355	403	0
1	2376	406	1
1	2376	406	0
1	2392	409	1
1	2392	409	0
1	2419	415	1
1	2419	415	0
1	2424	416	1
1	2427	416	0
1	2434	417	1
1	2438	417	0
1	2508	433	1
1	2508	433	0
1	2515	434	1
1	2517	434	0
1	2530	438	1
1	2530	438	0
1	2541	441	1
1	2541	441	0
1	2542	441	1
1	2554	442	0
1	2593	448	1
1	2593	448	0
1	2603	449	1
1	2605	449	0
1	2612	450	1
1	2613	450	2
1	2616	450	1
1	2626	451	0
1	2646	454	1
1	2646	454	0
1	2647	454	1
1	2657	455	0
1	2682	464	1
1	2682	464	0
1	2690	465	1
1	2692	465	0
1	2703	467	1
1	2703	467	0
1	2712	469	1
1	2712	469	0
1	2728	472	1
1	2728	472	0
1	2754	476	1
1	2754	476	0
1	2769	480	1
1	2769	480	0
1	2785	483	1
1	2785	483	0
1	2808	487	1
1	2808	487	0
1	2821	491	1
1	2821	491	0
1	2829	492	1
1	2838	493	2
1	2839	493	3
1	2851	497	2
1	2852	497	3
1	2859	498	2
1	2869	499	1
1	2874	500	2
1	2876	500	1
1	2884	501	0
1	2891	502	1
1	2897	502	0
1	2904	503	1
1	2908	503	0
1	2927	506	1
1	2927	506	0
1	2935	507	1
1	2937	507	0
1	2956	511	1
1	2956	511	0
1	2989	517	1
1	2989	517	0
1	2994	518	1
1	2996	518	0
1	3008	520	1
1	3008	520	0
1	3039	527	1
1	3039	527	0
1	3048	529	1
1	3048	529	0
1	3067	534	1
1	3067	534	0
1	3068	534	1
1	3078	535	0
1	3089	537	1
1	3089	537	0
1	3090	537	1
1	3097	538	0
1	3127	546	1
1	3127	546	0
1	3173	554	1
1	3173	554	0
1	3182	556	1
1	3182	556	0
1	3187	557	1
1	3190	557	0
1	3231	564	1
1	3231	564	0
1	3249	567	1
1	3249	567	0
1	3250	567	1
1	3257	568	0
1	3272	571	1
1	3272	571	0
1	3286	573	1
1	3286	573	0
1	3287	573	1
1	3293	574	0
1	3315	577	1
1	3315	577	0
1	3326	578	1
1	3349	581	2
1	3350	581	3
1	3364	583	2
1	3373	584	3
1	3375	584	2
1	3385	585	1
1	3392	586	2
1	3395	586	1
1	3405	587	0
1	3410	588	1
1	3411	588	2
1	3414	588	1
1	3424	589	0
1	3429	590	1
1	3430	590	2
1	3432	590	1
1	3437	591	2
1	3441	591	1
1	3452	592	0
1	3459	593	1
1	3463	593	0
1	3495	598	1
1	3495	598	0
1	3506	600	1
1	3506	600	0
1	3522	603	1
1	3522	603	0
1	3560	612	1
1	3560	612	0
1	3561	612	1
1	3568	613	0
1	3600	618	1
1	3600	618	0
1	3607	619	1
1	3609	619	0
1	3626	625	1
1	3626	625	0
1	3651	630	1
1	3651	630	0
1	3652	630	1
1	3657	631	2
1	3659	631	1
1	3664	632	2
1	3669	632	1
1	3679	633	0
1	3725	640	1
1	3725	640	0
1	3734	641	1
1	3736	641	0
1	3763	646	1
1	3763	646	0
1	3772	648	1
1	3772	648	0
1	3795	653	1
1	3795	653	0
1	3846	661	1
1	3846	661	0
1	3881	670	1
1	3881	670	0
1	3889	672	1
1	3899	676	0
1	3910	679	1
1	3910	679	0
1	3928	683	1
1	3928	683	0
1	3937	685	1
1	3937	685	0
1	3962	691	1
1	3962	691	0
1	3969	692	1
1	3971	692	0
1	4028	705	1
1	4028	705	0
1	4037	706	1
1	4040	706	0
1	4081	712	1
1	4081	712	0
1	4108	718	1
1	4108	718	0
1	4125	720	1
1	4125	720	0
1	4144	722	1
1	4144	722	0
1	4151	723	1
1	4153	723	0
1	4179	731	1
1	4179	731	0
1	4180	731	1
1	4191	732	0
1	4221	738	1
1	4221	738	0
1	4253	743	1
1	4253	743	0
1	4262	744	1
1	4264	744	0
1	4281	747	1
1	4281	747	0
1	4292	750	1
1	4292	750	0
1	4293	750	1
1	4299	751	0
1	4317	755	1
1	4317	755	0
1	4322	756	1
1	4326	756	0
1	4341	758	1
1	4341	758	0
1	4390	770	1
1	4390	770	0
1	4397	771	1
1	4399	771	0
1	4419	776	1
1	4419	776	0
1	4427	777	1
1	4429	777	0
1	4436	778	1
1	4438	778	0
1	4443	779	1
1	4446	779	0
1	4463	782	1
1	4471	783	2
1	4488	785	1
1	4489	785	2
1	4499	786	1
1	4507	787	0
1	4551	799	1
1	4551	799	0
1	4639	823	1
1	4639	823	0
1	4654	828	1
1	4654	828	0
1	4670	832	1
1	4670	832	0
1	4686	834	1
1	4686	834	0
1	4739	846	1
1	4739	846	0
1	4771	850	1
1	4771	850	0
1	4778	851	1
1	4782	851	0
1	4812	855	1
1	4812	855	0
1	4821	856	1
1	4822	856	2
1	4824	856	1
1	4832	857	0
1	4843	860	1
1	4843	860	0
1	4844	860	1
1	4849	861	2
1	4851	861	1
1	4857	862	0
1	4869	864	1
1	4869	864	0
1	4870	864	1
1	4877	865	2
1	4878	865	3
1	4880	865	2
1	4886	866	1
1	4892	867	0
1	4897	868	1
1	4899	868	0
1	4908	870	1
1	4908	870	0
1	4933	876	1
1	4933	876	0
1	4934	876	1
1	4945	877	0
1	4952	878	1
1	4956	878	0
1	4963	879	1
1	4964	879	2
1	4969	879	1
1	4976	880	2
1	4980	880	1
1	4991	881	0
1	4998	882	1
1	5003	882	0
1	5039	890	1
1	5039	890	0
1	5076	896	1
1	5076	896	0
1	5103	903	1
1	5103	903	0
1	5131	911	1
1	5131	911	0
1	5142	914	1
1	5142	914	0
1	5174	920	1
1	5174	920	0
1	5175	920	1
1	5183	921	2
1	5184	921	3
1	5186	921	2
1	5193	922	3
1	5195	922	2
1	5201	923	1
1	5207	924	0
1	5241	936	1
1	5241	936	0
1	5242	936	1
1	5249	937	0
1	5264	940	1
1	5264	940	0
1	5285	943	1
1	5285	943	0
1	5330	949	1
1	5330	949	0
1	5345	953	1
1	5345	953	0
1	5350	954	1
1	5352	954	0
1	5368	958	1
1	5368	958	0
1	5382	960	1
1	5382	960	0
1	5396	962	1
1	5396	962	0
1	5478	977	1
1	5478	977	0
1	5516	986	1
1	5516	986	0
1	5525	988	1
1	5525	988	0
1	5534	990	1
1	5534	990	0
1	5562	995	1
1	5562	995	0
1	5569	996	1
1	5572	996	0
1	5588	998	1
1	5588	998	0
1	5595	999	1
1	5597	999	0
1	5623	1007	1
1	5623	1007	0
1	5637	1009	1
1	5637	1009	0
1	5660	1014	1
1	5668	1015	0
1	5693	1019	1
1	5693	1019	0
1	5730	1026	1
1	5730	1026	0
1	5771	1031	1
1	5771	1031	0
1	5772	1031	1
1	5783	1032	2
1	5785	1032	1
1	5795	1033	0
1	5832	1041	1
1	5832	1041	0
1	5845	1045	1
1	5845	1045	0
1	5882	1054	1
1	5882	1054	0
1	5964	1072	1
1	5964	1072	0
1	5972	1073	1
1	5973	1073	2
1	5975	1073	1
1	5982	1074	2
1	5985	1074	1
1	5996	1075	0
1	6003	1076	1
1	6007	1076	0
1	6012	1077	1
1	6013	1077	2
1	6016	1077	1
1	6026	1078	0
1	6035	1080	1
1	6035	1080	0
1	6076	1088	1
1	6076	1088	0
1	6167	1111	1
1	6167	1111	0
1	6175	1112	1
1	6176	1112	2
1	6178	1112	1
1	6187	1113	0
1	6204	1117	1
1	6204	1117	0
1	6224	1119	1
1	6224	1119	0
1	6241	1121	1
1	6241	1121	0
1	6265	1125	1
1	6265	1125	0
1	6293	1134	1
1	6293	1134	0
1	6334	1142	1
1	6334	1142	0
1	6343	1144	1
1	6343	1144	0
1	6359	1147	1
1	6359	1147	0
1	6360	1147	1
1	6366	1148	0
1	6437	1159	1
1	6437	1159	0
1	6456	1161	1
1	6456	1161	0
1	6463	1162	1
1	6465	1162	0
1	6470	1163	1
1	6472	1163	0
1	6481	1165	1
1	6481	1165	0
1	6498	1171	1
1	6498	1171	0
1	6539	1176	1
1	6539	1176	0
1	6548	1177	1
1	6551	1177	0
1	6582	1181	1
1	6582	1181	0
1	6607	1184	1
1	6607	1184	0
1	6620	1187	1
1	6620	1187	0
1	6636	1190	1
1	6636	1190	0
1	6645	1192	1
1	6645	1192	0
1	6656	1195	1
1	6656	1195	0
1	6667	1198	1
1	6667	1198	0
1	6668	1198	1
1	6675	1199	0
1	6688	1201	1
1	6688	1201	0
1	6689	1201	1
1	6699	1202	0
1	6735	1208	1
1	6735	1208	0
1	6746	1210	1
1	6746	1210	0
1	6755	1212	1
1	6755	1212	0
1	6777	1218	1
1	6777	1218	0
1	6799	1224	1
1	6799	1224	0
1	6823	1231	1
1	6823	1231	0
1	6846	1235	1
1	6846	1235	0
1	6865	1237	1
1	6865	1237	0
1	6874	1238	1
1	6877	1238	0
1	6894	1240	1
1	6894	1240	0
1	6895	1240	1
1	6896	1240	2
1	6908	1241	1
1	6917	1242	2
1	6919	1242	1
1	6934	1245	2
1	6939	1246	3
1	6940	1246	4
1	6943	1247	5
1	6947	1248	4
1	6948	1248	5
1	6954	1249	4
1	6961	1250	3
1	6972	1251	2
1	6982	1252	1
1	6989	1253	0
1	7011	1257	1
1	7011	1257	0
1	7038	1263	1
1	7038	1263	0
1	7043	1264	1
1	7045	1264	0
1	7057	1266	1
1	7057	1266	0
1	7078	1269	1
1	7078	1269	0
1	7101	1272	1
1	7101	1272	0
1	7129	1276	1
1	7129	1276	0
1	7142	1280	1
1	7142	1280	0
1	7147	1281	1
1	7149	1281	0
1	7206	1292	1
1	7206	1292	0
1	7215	1294	1
1	7215	1294	0
1	7220	1295	1
1	7223	1295	0
1	7230	1296	1
1	7234	1296	0
1	7243	1298	1
1	7243	1298	0
1	7299	1311	1
1	7299	1311	0
1	7314	1316	1
1	7314	1316	0
1	7325	1319	1
1	7325	1319	0
1	7347	1325	1
1	7347	1325	0
1	7372	1330	1
1	7372	1330	0
1	7383	1333	1
1	7383	1333	0
1	7409	1336	1
1	7409	1336	0
1	7433	1339	1
1	7433	1339	0
1	7447	1341	1
1	7447	1341	0
1	7454	1342	1
1	7456	1342	0
1	7466	1345	1
1	7472	1346	2
1	7485	1348	1
1	7486	1348	2
1	7492	1349	1
1	7498	1350	0
1	7503	1351	1
1	7506	1351	0
1	7519	1353	1
1	7519	1353	0
1	7530	1356	1
1	7530	1356	0
1	7593	1371	1
1	7593	1371	0
1	7609	1373	1
1	7609	1373	0
1	7634	1378	1
1	7634	1378	0
1	7662	1382	1
1	7662	1382	0
1	7663	1382	1
1	7669	1383	0
1	7674	1384	1
1	7676	1384	0
1	7692	1388	1
1	7692	1388	0
1	7707	1392	1
1	7707	1392	0
1	7731	1399	1
1	7731	1399	0
1	7753	1405	1
1	7753	1405	0
1	7754	1405	1
1	7763	1406	0
1	7774	1408	1
1	7774	1408	0
1	7782	1409	1
1	7785	1409	0
1	7811	1414	1
1	7811	1414	0
1	7831	1419	1
1	7831	1419	0
1	7850	1426	1
1	7850	1426	0
1	7855	1427	1
1	7857	1427	0
1	7862	1428	1
1	7865	1428	0
1	7886	1432	1
1	7886	1432	0
1	7950	1446	1
1	7950	1446	0
1	7975	1451	1
1	7975	1451	0
1	7993	1453	1
1	7993	1453	0
1	8003	1454	1
1	8005	1454	0
1	8014	1455	1
1	8016	1455	0
1	8037	1460	1
1	8041	1461	0
1	8042	1461	1
1	8048	1462	0
1	8078	1470	1
1	8078	1470	0
1	8087	1471	1
1	8089	1471	0
1	8096	1472	1
1	8098	1472	0
1	8103	1473	1
1	8105	1473	0
1	8110	1474	1
1	8113	1474	0
1	8158	1483	1
1	8158	1483	0
1	8174	1485	1
1	8174	1485	0
1	8175	1485	1
1	8183	1486	0
1	8228	1493	1
1	8228	1493	0