version 3
run Experimentos-78-20260514-09:20:58-3806
attr configname Experimentos
attr datetime 20260514-09:20:58
attr datetimef 20260514-092058
attr experiment Experimentos
attr inifile TwoQueues.ini
attr iterationvars "$p=0.6, $q=0.2, $Y=10, $m=5"
attr iterationvarsd p=0.6/q=0.2/Y=10/m=5
attr iterationvarsf p=0.6,q=0.2,Y=10,m=5-
attr measurement "$p=0.6, $q=0.2, $Y=10, $m=5"
attr network TwoQueues
attr processid 3806
attr repetition 18
attr replication #18
attr resultdir results
attr runnumber 78
attr seedset 78
itervar Y 10
itervar m 5
itervar p 0.6
itervar q 0.2
config description "Barrido completo de parámetros Proyecto 12"
config **.source1.p 0.6
config **.source1.q 0.2
config **.source2.p 0.6
config **.source2.q 0.2
config **.serverWithMaintenance.Y 10
config **.serverWithMaintenance.m 5
config network TwoQueues
config cpu-time-limit 5000s
config sim-time-limit 5000s
config warmup-period 400s
config repeat 20
config output-scalar-file results/Experimentos-p=0.6,q=0.2,Y=10,m=5--#18.sca
config output-vector-file results/Experimentos-p=0.6,q=0.2,Y=10,m=5--#18.vec
config **.vector-recording true

vector 0 TwoQueues.serverWithMaintenance residenceTime2:vector ETV
attr recordingmode vector
attr source delay2
attr title "Residence Time Class 2"
vector 1 TwoQueues.queue2 queueLengthStats:vector ETV
attr recordingmode vector
attr source qlen
attr title "Average Queue Length"
vector 2 TwoQueues.queue1 queueLengthStats:vector ETV
attr recordingmode vector
attr source qlen
attr title "Average Queue Length"
vector 3 TwoQueues.server residenceTime1:vector ETV
attr recordingmode vector
attr source delay1
attr title "Residence Time Class 1"
vector 4 TwoQueues.server throughputStats1:vector ETV
attr recordingmode vector
attr source throughput1
attr title "Throughput Class 1"
0	2556	403	7
0	2566	404	8
0	2585	406	1
0	2603	408	1
0	2615	410	1
0	2631	413	1
0	2654	417	1
0	2664	419	1
0	2673	420	2
0	2687	422	1
0	2729	428	5
0	2735	429	6
0	2741	430	4
0	2868	450	1
0	2892	453	1
0	2928	461	1
0	3048	490	1
0	3094	495	1
0	3220	513	1
0	3231	514	1
0	3267	520	5
0	3336	533	1
0	3411	552	1
0	3419	553	1
0	3425	554	2
0	3432	555	1
0	3439	556	1
0	3478	564	1
0	3496	566	1
0	3521	572	1
0	3567	578	6
0	3576	579	4
0	3585	581	1
0	3592	582	1
0	3599	583	1
0	3608	585	1
0	3621	589	1
0	3635	591	1
0	3734	612	1
0	3759	614	1
0	3884	631	1
0	3940	638	1
0	4002	646	1
0	4066	655	1
0	4148	667	1
0	4186	677	1
0	4226	684	1
0	4243	686	1
0	4303	695	1
0	4325	698	1
0	4419	717	1
0	4461	729	1
0	4533	738	1
0	4648	754	1
0	4696	761	1
0	4750	768	1
0	4762	769	1
0	4774	770	2
0	4837	779	1
0	4860	782	1
0	4904	788	7
0	4910	789	7
0	4916	790	8
0	4958	799	1
0	4975	801	1
0	5022	806	1
0	5045	809	1
0	5068	812	1
0	5124	820	1
0	5158	824	1
0	5205	830	5
0	5215	831	3
0	5223	832	2
0	5229	833	2
0	5235	834	3
0	5255	838	1
0	5301	845	1
0	5321	847	1
0	5352	851	1
0	5364	852	1
0	5405	858	7
0	5415	859	6
0	5427	860	3
0	5437	861	2
0	5518	874	1
0	5626	890	1
0	5662	896	1
0	5688	899	1
0	5702	902	1
0	5731	908	1
0	5828	927	1
0	5837	929	1
0	5856	936	1
0	5877	941	1
0	5883	942	2
0	5922	951	1
0	5928	952	2
0	5938	953	1
0	5949	955	1
0	5958	957	1
0	6010	965	1
0	6026	968	1
0	6055	974	1
0	6065	975	1
0	6072	976	1
0	6143	989	1
0	6171	993	1
0	6199	997	1
0	6241	1004	1
0	6250	1005	2
0	6306	1016	1
0	6406	1031	1
0	6441	1035	1
0	6453	1036	2
0	6464	1037	2
0	6474	1038	2
0	6495	1041	1
0	6521	1043	1
0	6540	1045	1
0	6693	1066	1
0	6762	1076	1
0	6771	1077	2
0	6781	1079	1
0	6795	1080	2
0	6805	1081	2
0	6815	1082	3
0	6826	1083	1
0	6848	1086	1
0	6865	1088	1
0	6895	1094	1
0	6928	1100	6
0	6940	1101	2
0	6950	1102	3
0	7004	1113	1
0	7042	1118	1
0	7107	1131	1
0	7131	1134	1
0	7142	1135	2
0	7153	1136	2
0	7165	1137	2
0	7237	1148	1
0	7247	1149	1
0	7336	1169	1
0	7347	1170	1
0	7367	1174	1
0	7376	1176	1
0	7387	1178	1
0	7419	1183	1
0	7430	1184	2
0	7457	1187	1
0	7504	1193	2
0	7515	1194	3
0	7525	1195	1
0	7547	1202	1
0	7639	1218	1
0	7668	1223	1
0	7704	1232	1
0	7711	1233	1
0	7794	1246	1
0	7804	1247	1
0	7897	1263	1
0	7920	1267	1
0	7930	1268	1
0	7943	1271	1
0	7955	1272	1
0	7971	1274	1
0	7984	1275	1
0	8039	1282	1
0	8099	1292	1
0	8116	1294	1
0	8145	1300	5
0	8156	1301	1
0	8168	1303	1
0	8207	1309	1
0	8224	1311	1
0	8237	1312	1
0	8281	1318	1
0	8330	1325	1
0	8341	1326	1
0	8386	1333	1
0	8435	1339	2
0	8445	1340	2
0	8455	1341	1
0	8482	1347	1
0	8530	1355	1
0	8560	1359	1
0	8590	1362	1
0	8613	1365	1
0	8645	1369	1
0	8678	1373	1
0	8724	1379	6
0	8730	1380	6
0	8739	1381	7
0	8849	1404	1
0	8901	1417	1
0	9004	1433	1
0	9040	1438	1
0	9068	1442	1
0	9086	1446	1
0	9124	1454	1
0	9216	1465	1
0	9251	1470	1
0	9305	1481	1
0	9321	1483	1
0	9329	1484	1
0	9335	1485	2
0	9376	1497	1
0	9395	1500	1
0	9410	1502	1
0	9416	1503	2
0	9455	1509	3
0	9464	1510	4
0	9484	1512	1
0	9512	1517	1
0	9524	1519	1
0	9557	1524	1
0	9581	1529	1
0	9604	1534	1
0	9622	1538	1
0	9633	1541	1
0	9668	1547	4
0	9712	1554	1
0	9739	1559	1
0	9766	1564	1
0	9775	1565	2
0	9813	1571	1
0	9824	1572	2
0	9835	1573	2
0	9845	1574	1
0	9876	1579	1
0	9938	1587	1
0	9974	1591	1
0	10044	1600	1
0	10054	1601	2
0	10096	1606	1
0	10201	1620	1
0	10214	1621	1
0	10238	1624	1
0	10256	1626	1
0	10308	1633	1
0	10352	1639	5
0	10385	1643	1
0	10408	1646	1
0	10478	1658	1
0	10516	1665	1
0	10545	1669	1
0	10575	1674	1
0	10614	1680	1
0	10630	1683	1
0	10648	1686	1
0	10695	1692	6
0	10716	1694	1
0	10795	1705	1
0	10821	1708	1
0	10851	1712	1
0	10870	1715	1
0	10915	1725	1
0	10945	1735	1
0	10973	1739	1
0	10998	1744	1
0	11021	1750	5
0	11039	1754	1
0	11051	1755	1
0	11061	1756	2
0	11088	1761	1
0	11110	1766	1
0	11155	1772	1
0	11200	1779	1
0	11209	1780	2
0	11223	1782	1
0	11260	1788	5
0	11269	1789	6
0	11280	1790	3
0	11312	1795	1
0	11336	1798	1
0	11348	1799	1
0	11357	1800	2
0	11387	1804	1
0	11423	1813	1
0	11493	1823	1
0	11544	1833	1
0	11562	1836	1
0	11596	1843	1
0	11715	1860	1
0	11729	1863	1
0	11760	1870	1
0	11796	1877	1
0	11876	1894	1
0	11895	1896	1
0	11906	1897	1
0	11950	1903	6
0	11977	1907	1
0	11996	1909	1
0	12028	1913	1
0	12058	1922	1
0	12115	1934	1
0	12126	1935	2
0	12136	1936	1
0	12151	1941	1
0	12174	1945	1
0	12204	1951	4
0	12211	1952	4
0	12217	1953	4
0	12223	1954	3
0	12245	1960	1
0	12300	1970	1
0	12331	1974	1
0	12398	1984	1
0	12406	1985	1
0	12412	1986	2
0	12445	1992	5
0	12473	1997	1
0	12498	2000	1
0	12512	2002	1
0	12558	2010	1
0	12591	2015	1
0	12601	2016	1
0	12619	2018	1
0	12640	2021	1
0	12666	2026	1
0	12707	2032	2
0	12713	2033	2
0	12756	2042	1
0	12770	2044	1
0	12787	2046	1
0	12824	2051	1
0	12844	2056	1
0	12880	2062	1
0	12904	2065	1
0	12918	2068	1
0	12964	2074	1
0	13056	2087	1
0	13074	2089	1
0	13084	2090	2
0	13094	2091	2
0	13117	2096	1
0	13140	2100	1
0	13181	2109	1
0	13260	2121	1
0	13328	2131	1
0	13374	2137	6
0	13380	2138	3
0	13424	2144	1
0	13482	2154	1
0	13503	2158	1
0	13563	2166	1
0	13622	2174	1
0	13697	2184	1
0	13744	2190	1
0	13768	2193	1
0	13826	2202	1
0	13857	2206	1
0	13875	2208	1
0	13885	2209	2
0	13957	2218	1
0	14053	2230	1
0	14083	2234	1
0	14134	2240	1
0	14145	2241	1
0	14275	2259	1
0	14320	2265	5
0	14430	2280	1
0	14443	2281	2
0	14455	2282	2
0	14467	2283	2
0	14481	2284	3
0	14491	2285	3
0	14503	2286	4
0	14513	2287	4
0	14523	2288	5
0	14635	2304	1
0	14673	2309	1
0	14700	2315	1
0	14720	2317	1
0	14784	2330	1
0	14802	2334	1
0	14814	2335	2
0	14825	2336	3
0	14838	2337	2
0	14881	2343	1
0	14928	2349	5
0	14937	2350	4
0	14945	2351	5
0	14971	2354	1
0	14983	2355	2
0	14993	2356	3
0	15002	2357	3
0	15019	2360	1
0	15030	2361	2
0	15040	2362	2
0	15084	2368	5
0	15097	2369	4
0	15114	2371	1
0	15174	2384	1
0	15191	2386	1
0	15229	2394	1
0	15246	2396	1
0	15262	2399	1
0	15273	2400	1
0	15281	2401	2
0	15319	2407	5
0	15329	2408	2
0	15361	2411	1
0	15380	2413	1
0	15392	2414	1
0	15445	2421	1
0	15496	2428	1
0	15513	2430	1
0	15545	2434	1
0	15569	2437	1
0	15599	2444	1
0	15608	2446	1
0	15656	2455	1
0	15670	2457	1
0	15687	2463	1
0	15702	2468	1
0	15745	2477	1
0	15787	2484	1
0	15868	2495	1
0	15883	2497	1
0	15928	2503	6
0	15939	2504	6
0	15949	2505	7
0	15977	2509	1
0	15998	2512	1
0	16008	2513	1
0	16149	2533	1
0	16172	2536	1
0	16190	2539	1
0	16204	2542	1
0	16242	2548	7
0	16253	2549	3
0	16267	2552	1
0	16284	2554	1
0	16295	2555	2
0	16314	2558	1
0	16332	2562	1
0	16365	2567	1
0	16375	2568	2
0	16381	2569	2
0	16557	2598	1
0	16569	2599	1
0	16627	2609	1
0	16685	2628	1
0	16754	2640	1
0	16793	2646	1
0	16803	2647	1
0	16863	2655	1
0	16887	2658	1
0	16903	2662	1
0	16946	2668	4
0	16959	2669	5
0	16969	2670	4
0	16987	2672	1
0	16996	2673	2
0	17043	2680	1
0	17066	2683	1
0	17079	2685	1
0	17106	2688	1
0	17119	2689	1
0	17178	2696	1
0	17240	2705	1
0	17251	2706	1
0	17267	2708	1
0	17276	2710	1
0	17323	2721	1
0	17341	2724	1
0	17375	2732	1
0	17420	2742	1
0	17441	2744	1
0	17485	2750	5
0	17510	2754	1
0	17517	2755	1
0	17533	2758	1
0	17542	2760	1
0	17617	2775	1
0	17643	2780	1
0	17656	2781	2
0	17684	2785	1
0	17706	2792	1
0	17749	2798	6
0	17842	2812	1
0	17872	2816	1
0	17904	2822	1
0	18031	2839	1
0	18049	2841	1
0	18099	2849	1
0	18124	2853	1
0	18131	2854	1
0	18152	2857	1
0	18190	2863	1
0	18200	2864	1
0	18216	2866	1
0	18256	2874	1
0	18303	2880	1
0	18354	2886	1
0	18366	2887	1
0	18414	2894	1
0	18452	2900	1
0	18503	2911	1
0	18578	2924	1
0	18589	2927	1
0	18636	2933	1
0	18648	2934	2
0	18681	2938	1
0	18717	2942	1
0	18735	2944	1
0	18753	2946	1
0	18770	2948	1
0	18782	2949	1
0	18818	2955	7
0	18832	2956	7
0	18843	2957	3
0	18853	2958	3
0	18863	2959	4
0	18889	2964	1
0	18912	2968	1
0	18925	2972	1
0	19002	2987	1
0	19015	2988	1
0	19045	2994	6
0	19054	2996	1
0	19111	3007	1
0	19125	3010	1
0	19153	3013	1
0	19168	3014	2
0	19214	3021	1
0	19232	3025	1
0	19271	3037	1
0	19317	3044	1
0	19348	3050	3
0	19355	3051	1
0	19372	3054	1
0	19418	3060	1
0	19429	3061	2
0	19479	3068	1
0	19503	3075	1
0	19548	3081	1
0	19567	3083	1
0	19578	3084	2
0	19620	3090	6
0	19630	3091	5
0	19661	3096	1
0	19701	3103	1
0	19707	3104	2
0	19805	3129	1
0	19825	3133	1
0	19850	3138	1
0	19857	3139	1
0	19870	3142	1
0	19921	3148	4
0	19931	3149	2
0	19963	3153	1
0	19975	3154	1
0	20085	3170	1
0	20099	3172	1
0	20139	3178	1
0	20155	3180	1
0	20168	3184	1
0	20186	3189	1
0	20291	3205	1
0	20378	3217	1
0	20389	3218	1
0	20403	3220	1
0	20421	3222	1
0	20432	3223	2
0	20465	3229	1
0	20474	3230	2
0	20507	3238	1
0	20520	3242	1
0	20569	3248	4
0	20582	3249	2
0	20592	3250	2
0	20603	3251	3
0	20614	3252	2
0	20623	3253	2
0	20630	3254	1
0	20650	3259	1
0	20662	3260	1
0	20672	3261	2
0	20702	3267	2
0	20718	3269	1
0	20724	3270	2
0	20730	3271	3
0	20793	3282	1
0	20818	3285	1
0	20829	3286	1
0	20846	3288	1
0	20876	3291	1
0	20893	3293	1
0	20960	3302	1
0	20970	3303	1
0	21006	3308	1
0	21019	3309	1
0	21059	3314	1
0	21102	3320	1
0	21118	3322	1
0	21134	3324	1
0	21160	3328	1
0	21176	3331	1
0	21209	3337	3
0	21216	3338	1
0	21226	3339	1
0	21264	3347	1
0	21303	3352	1
0	21314	3353	1
0	21325	3354	1
0	21404	3365	1
0	21445	3375	1
0	21452	3376	1
0	21482	3383	1
0	21514	3387	1
0	21540	3392	1
0	21550	3394	1
0	21557	3395	2
0	21563	3396	2
0	21613	3406	1
0	21675	3417	1
0	21853	3450	1
0	21945	3467	1
0	22010	3479	1
0	22048	3488	1
0	22091	3497	1
0	22098	3498	1
0	22185	3513	1
0	22195	3514	2
0	22234	3520	1
0	22277	3526	1
0	22288	3527	1
0	22306	3531	1
0	22359	3543	1
0	22375	3545	1
0	22394	3550	1
0	22403	3551	2
0	22412	3552	1
0	22428	3554	1
0	22460	3561	1
0	22503	3568	1
0	22512	3569	2
0	22522	3570	3
0	22548	3576	7
0	22558	3577	6
0	22568	3578	3
0	22596	3585	1
0	22609	3586	1
0	22622	3587	2
0	22633	3588	1
0	22653	3592	1
0	22678	3595	1
0	22689	3596	1
0	22729	3602	2
0	22740	3603	1
0	22751	3604	2
0	22810	3614	1
0	22820	3615	1
0	22870	3630	1
0	22881	3631	1
0	22912	3636	1
0	22921	3638	1
0	22963	3644	1
0	23010	3650	5
0	23034	3654	1
0	23084	3664	1
0	23118	3668	1
0	23129	3669	1
0	23174	3675	1
0	23194	3679	1
0	23223	3685	1
0	23233	3686	1
0	23268	3691	1
0	23314	3697	5
0	23337	3701	1
0	23409	3711	1
0	23463	3719	1
0	23526	3727	1
0	23540	3728	1
0	23584	3734	1
0	23648	3742	1
0	23658	3743	2
0	23683	3746	1
0	23733	3752	3
0	23744	3753	3
0	23754	3754	3
0	23804	3763	1
0	23821	3765	1
0	23831	3766	2
0	23841	3767	2
0	23849	3768	2
0	23858	3770	1
0	23966	3791	1
0	24006	3797	7
0	24024	3800	1
0	24048	3807	1
0	24058	3808	1
0	24067	3809	1
0	24177	3826	1
0	24195	3828	1
0	24206	3829	1
0	24251	3835	1
0	24265	3837	1
0	24289	3843	6
0	24323	3847	1
0	24335	3848	2
0	24347	3849	2
0	24369	3852	1
0	24389	3856	1
0	24426	3861	1
0	24471	3868	1
0	24486	3873	1
0	24495	3875	1
0	24523	3881	5
0	24639	3903	1
0	24652	3904	1
0	24668	3905	2
0	24680	3906	2
0	24690	3907	3
0	24772	3918	1
0	24850	3929	1
0	24974	3949	1
0	25037	3962	1
0	25068	3968	1
0	25086	3971	1
0	25116	3977	1
0	25177	3989	1
0	25226	3995	1
0	25294	4005	1
0	25319	4010	1
0	25330	4011	1
0	25340	4012	2
0	25512	4037	1
0	25565	4043	5
0	25578	4044	1
0	25642	4052	1
0	25660	4054	1
0	25677	4056	1
0	25727	4063	1
0	25738	4064	2
0	25750	4065	1
0	25785	4070	1
0	25799	4073	1
0	25845	4079	1
0	25864	4081	1
0	25875	4082	2
0	25960	4099	1
0	25994	4104	1
0	26054	4114	1
0	26158	4136	1
0	26181	4139	1
0	26192	4140	1
0	26234	4149	1
0	26280	4155	1
0	26290	4156	1
0	26318	4162	1
0	26328	4163	2
0	26409	4177	1
0	26420	4178	2
0	26486	4193	1
0	26502	4195	1
0	26556	4204	1
0	26634	4216	1
0	26741	4236	1
0	26760	4238	1
0	26807	4247	1
0	26872	4263	1
0	26882	4264	1
0	26909	4268	1
0	26934	4274	1
0	26941	4275	1
0	26984	4284	1
0	26991	4285	1
0	27021	4291	3
0	27069	4300	1
0	27090	4304	1
0	27158	4316	1
0	27182	4319	1
0	27209	4326	1
0	27225	4328	1
0	27239	4331	1
0	27271	4337	1
0	27285	4339	1
0	27328	4345	4
0	27342	4346	5
0	27352	4347	5
0	27362	4348	3
0	27371	4349	4
0	27388	4351	1
0	27474	4364	1
0	27529	4371	1
0	27584	4378	1
0	27594	4379	2
0	27632	4385	4
0	27656	4390	1
0	27676	4392	1
0	27687	4393	2
0	27719	4400	1
0	27728	4402	1
0	27751	4405	1
0	27768	4407	1
0	27781	4408	1
0	27791	4409	2
0	27835	4415	3
0	27845	4416	1
0	27879	4422	1
0	27937	4430	1
0	27954	4432	1
0	27999	4438	1
0	28017	4440	1
0	28047	4444	1
0	28095	4455	1
0	28139	4467	1
0	28171	4473	6
0	28184	4474	6
0	28196	4475	7
0	28207	4476	3
0	28217	4477	3
0	28289	4487	1
0	28390	4501	1
0	28441	4511	1
0	28453	4512	2
0	28472	4514	1
0	28523	4520	7
0	28542	4522	1
0	28554	4523	2
0	28584	4527	1
0	28603	4529	1
0	28622	4532	1
0	28632	4533	2
0	28641	4534	2
0	28652	4535	2
0	28663	4536	2
0	28688	4542	7
0	28698	4543	5
0	28716	4545	1
0	28732	4547	1
0	28755	4551	1
0	28769	4554	1
0	28781	4555	1
0	28840	4562	1
0	28909	4572	1
0	28978	4586	1
0	29015	4592	4
0	29062	4598	1
0	29124	4609	1
0	29163	4617	1
0	29180	4622	1
0	29208	4627	1
0	29279	4640	1
0	29312	4644	1
0	29330	4646	1
0	29419	4660	1
0	29453	4666	6
0	29459	4667	2
0	29512	4681	1
0	29521	4683	1
0	29528	4684	1
0	29541	4688	1
0	29565	4691	1
0	29597	4696	1
0	29610	4697	1
0	29648	4702	1
0	29695	4711	1
0	29705	4712	1
0	29728	4718	1
0	29734	4719	2
0	29745	4721	1
0	29764	4724	1
0	29807	4731	1
0	29831	4735	1
0	29849	4737	1
0	29867	4739	1
0	29898	4745	7
0	29905	4746	7
0	29915	4747	2
0	30034	4771	1
0	30045	4773	1
0	30065	4775	1
0	30077	4776	1
0	30149	4785	1
0	30166	4787	1
0	30206	4792	1
0	30243	4798	7
0	30253	4799	8
0	30263	4800	8
0	30271	4801	9
0	30278	4802	7
0	30284	4803	2
0	30295	4804	1
0	30306	4805	2
0	30315	4806	1
0	30379	4821	1
0	30423	4827	4
0	30487	4836	1
0	30535	4842	1
0	30575	4847	1
0	30592	4849	1
0	30662	4864	1
0	30676	4868	1
0	30685	4869	2
0	30697	4870	1
0	30710	4873	1
0	30743	4879	6
0	30753	4880	6
0	30763	4881	7
0	30769	4882	2
0	30781	4884	1
0	30810	4889	1
0	30843	4894	1
0	30853	4895	1
0	30866	4898	1
0	30892	4901	1
0	30943	4907	5
0	30955	4908	1
0	31037	4919	1
0	31051	4920	1
0	31099	4926	1
0	31155	4933	1
0	31227	4943	1
0	31264	4948	1
0	31315	4955	1
0	31327	4956	2
0	31386	4968	1
0	31502	4986	1
0	31536	4990	1
0	31558	4993	1
0	31568	4994	1
1	2548	402	1
1	2559	403	0
1	2576	405	1
1	2576	405	0
1	2595	407	1
1	2595	407	0
1	2611	409	1
1	2611	409	0
1	2627	412	1
1	2627	412	0
1	2650	416	1
1	2650	416	0
1	2659	418	1
1	2659	418	0
1	2660	418	1
1	2667	419	0
1	2680	421	1
1	2680	421	0
1	2696	423	1
1	2697	423	2
1	2715	426	3
1	2723	427	2
1	2731	428	1
1	2737	429	0
1	2861	449	1
1	2861	449	0
1	2886	452	1
1	2886	452	0
1	2924	460	1
1	2924	460	0
1	3042	489	1
1	3042	489	0
1	3085	494	1
1	3085	494	0
1	3213	512	1
1	3213	512	0
1	3222	513	1
1	3224	513	0
1	3241	515	1
1	3261	519	0
1	3329	532	1
1	3329	532	0
1	3407	551	1
1	3407	551	0
1	3412	552	1
1	3413	552	2
1	3415	552	1
1	3421	553	0
1	3426	554	1
1	3428	554	0
1	3433	555	1
1	3435	555	0
1	3469	563	1
1	3469	563	0
1	3488	565	1
1	3488	565	0
1	3515	571	1
1	3515	571	0
1	3522	572	1
1	3544	575	2
1	3560	577	1
1	3570	578	0
1	3581	580	1
1	3581	580	0
1	3586	581	1
1	3588	581	0
1	3593	582	1
1	3595	582	0
1	3604	584	1
1	3604	584	0
1	3617	588	1
1	3617	588	0
1	3629	590	1
1	3629	590	0
1	3727	611	1
1	3727	611	0
1	3751	613	1
1	3751	613	0
1	3876	630	1
1	3876	630	0
1	3932	637	1
1	3932	637	0
1	3994	645	1
1	3994	645	0
1	4059	654	1
1	4059	654	0
1	4142	666	1
1	4142	666	0
1	4179	676	1
1	4179	676	0
1	4218	683	1
1	4218	683	0
1	4236	685	1
1	4236	685	0
1	4295	694	1
1	4295	694	0
1	4319	697	1
1	4319	697	0
1	4415	716	1
1	4415	716	0
1	4454	728	1
1	4454	728	0
1	4526	737	1
1	4526	737	0
1	4641	753	1
1	4641	753	0
1	4688	760	1
1	4688	760	0
1	4740	767	1
1	4740	767	0
1	4752	768	1
1	4753	768	2
1	4755	768	1
1	4767	769	0
1	4829	778	1
1	4829	778	0
1	4853	781	1
1	4853	781	0
1	4854	781	1
1	4861	782	2
1	4862	782	3
1	4898	787	2
1	4906	788	1
1	4912	789	0
1	4949	798	1
1	4949	798	0
1	4968	800	1
1	4968	800	0
1	5014	805	1
1	5014	805	0
1	5038	808	1
1	5038	808	0
1	5061	811	1
1	5061	811	0
1	5116	819	1
1	5116	819	0
1	5150	823	1
1	5150	823	0
1	5167	825	1
1	5189	828	2
1	5198	829	1
1	5207	830	2
1	5209	830	1
1	5216	831	2
1	5217	831	3
1	5219	831	2
1	5225	832	1
1	5231	833	0
1	5247	837	1
1	5247	837	0
1	5293	844	1
1	5293	844	0
1	5312	846	1
1	5312	846	0
1	5345	850	1
1	5345	850	0
1	5354	851	1
1	5355	851	2
1	5357	851	1
1	5375	853	2
1	5394	857	1
1	5395	857	2
1	5408	858	1
1	5417	859	2
1	5420	859	1
1	5430	860	0
1	5511	873	1
1	5511	873	0
1	5618	889	1
1	5618	889	0
1	5656	895	1
1	5656	895	0
1	5681	898	1
1	5681	898	0
1	5698	901	1
1	5698	901	0
1	5725	907	1
1	5725	907	0
1	5822	926	1
1	5822	926	0
1	5833	928	1
1	5833	928	0
1	5852	935	1
1	5852	935	0
1	5872	940	1
1	5872	940	0
1	5873	940	1
1	5879	941	0
1	5917	950	1
1	5917	950	0
1	5918	950	1
1	5924	951	0
1	5929	952	1
1	5932	952	0
1	5945	954	1
1	5945	954	0
1	5954	956	1
1	5954	956	0
1	6004	964	1
1	6004	964	0
1	6022	967	1
1	6022	967	0
1	6049	973	1
1	6049	973	0
1	6057	974	1
1	6059	974	0
1	6066	975	1
1	6068	975	0
1	6139	988	1
1	6139	988	0
1	6165	992	1
1	6165	992	0
1	6193	996	1
1	6193	996	0
1	6232	1003	1
1	6232	1003	0
1	6233	1003	1
1	6244	1004	0
1	6298	1015	1
1	6298	1015	0
1	6398	1030	1
1	6398	1030	0
1	6430	1034	1
1	6430	1034	0
1	6431	1034	1
1	6443	1035	2
1	6446	1035	1
1	6455	1036	2
1	6457	1036	1
1	6467	1037	0
1	6488	1040	1
1	6488	1040	0
1	6513	1042	1
1	6513	1042	0
1	6533	1044	1
1	6533	1044	0
1	6683	1065	1
1	6683	1065	0
1	6754	1075	1
1	6754	1075	0
1	6755	1075	1
1	6765	1076	0
1	6776	1078	1
1	6776	1078	0
1	6777	1078	1
1	6782	1079	2
1	6783	1079	3
1	6789	1079	2
1	6799	1080	1
1	6809	1081	0
1	6816	1082	1
1	6820	1082	0
1	6840	1085	1
1	6840	1085	0
1	6858	1087	1
1	6858	1087	0
1	6891	1093	1
1	6891	1093	0
1	6896	1094	1
1	6919	1099	0
1	6920	1099	1
1	6921	1099	2
1	6933	1100	1
1	6943	1101	0
1	7000	1112	1
1	7000	1112	0
1	7033	1117	1
1	7033	1117	0
1	7101	1130	1
1	7101	1130	0
1	7121	1133	1
1	7121	1133	0
1	7122	1133	1
1	7133	1134	2
1	7135	1134	1
1	7144	1135	2
1	7146	1135	1
1	7158	1136	0
1	7229	1147	1
1	7229	1147	0
1	7239	1148	1
1	7241	1148	0
1	7327	1168	1
1	7327	1168	0
1	7338	1169	1
1	7340	1169	0
1	7363	1173	1
1	7363	1173	0
1	7372	1175	1
1	7372	1175	0
1	7381	1177	1
1	7381	1177	0
1	7411	1182	1
1	7411	1182	0
1	7412	1182	1
1	7423	1183	0
1	7448	1186	1
1	7448	1186	0
1	7488	1191	1
1	7489	1191	2
1	7497	1192	1
1	7508	1193	0
1	7517	1194	1
1	7519	1194	0
1	7540	1201	1
1	7540	1201	0
1	7631	1217	1
1	7631	1217	0
1	7661	1222	1
1	7661	1222	0
1	7700	1231	1
1	7700	1231	0
1	7705	1232	1
1	7707	1232	0
1	7787	1245	1
1	7787	1245	0
1	7796	1246	1
1	7798	1246	0
1	7891	1262	1
1	7891	1262	0
1	7914	1266	1
1	7914	1266	0
1	7921	1267	1
1	7924	1267	0
1	7939	1270	1
1	7939	1270	0
1	7944	1271	1
1	7949	1271	0
1	7964	1273	1
1	7964	1273	0
1	7973	1274	1
1	7977	1274	0
1	8031	1281	1
1	8031	1281	0
1	8091	1291	1
1	8091	1291	0
1	8109	1293	1
1	8109	1293	0
1	8123	1295	1
1	8138	1299	0
1	8147	1300	1
1	8149	1300	0
1	8164	1302	1
1	8164	1302	0
1	8194	1308	1
1	8194	1308	0
1	8217	1310	1
1	8217	1310	0
1	8226	1311	1
1	8230	1311	0
1	8274	1317	1
1	8274	1317	0
1	8323	1324	1
1	8323	1324	0
1	8332	1325	1
1	8334	1325	0
1	8379	1332	1
1	8379	1332	0
1	8417	1337	1
1	8427	1338	0
1	8428	1338	1
1	8438	1339	0
1	8447	1340	1
1	8449	1340	0
1	8478	1346	1
1	8478	1346	0
1	8522	1354	1
1	8522	1354	0
1	8550	1358	1
1	8550	1358	0
1	8582	1361	1
1	8582	1361	0
1	8606	1364	1
1	8606	1364	0
1	8637	1368	1
1	8637	1368	0
1	8671	1372	1
1	8671	1372	0
1	8680	1373	1
1	8688	1374	2
1	8689	1374	3
1	8718	1378	2
1	8726	1379	1
1	8733	1380	0
1	8843	1403	1
1	8843	1403	0
1	8894	1416	1
1	8894	1416	0
1	8997	1432	1
1	8997	1432	0
1	9034	1437	1
1	9034	1437	0
1	9062	1441	1
1	9062	1441	0
1	9082	1445	1
1	9082	1445	0
1	9117	1453	1
1	9117	1453	0
1	9208	1464	1
1	9208	1464	0
1	9244	1469	1
1	9244	1469	0
1	9297	1480	1
1	9297	1480	0
1	9315	1482	1
1	9315	1482	0
1	9322	1483	1
1	9323	1483	2
1	9325	1483	1
1	9331	1484	0
1	9370	1496	1
1	9370	1496	0
1	9389	1499	1
1	9389	1499	0
1	9403	1501	1
1	9403	1501	0
1	9404	1501	1
1	9412	1502	0
1	9437	1506	1
1	9438	1506	2
1	9449	1508	1
1	9458	1509	0
1	9475	1511	1
1	9475	1511	0
1	9506	1516	1
1	9506	1516	0
1	9520	1518	1
1	9520	1518	0
1	9549	1523	1
1	9549	1523	0
1	9575	1528	1
1	9575	1528	0
1	9600	1533	1
1	9600	1533	0
1	9618	1537	1
1	9618	1537	0
1	9629	1540	1
1	9629	1540	0
1	9639	1543	1
1	9660	1546	0
1	9705	1553	1
1	9705	1553	0
1	9730	1558	1
1	9730	1558	0
1	9761	1563	1
1	9761	1563	0
1	9762	1563	1
1	9769	1564	0
1	9805	1570	1
1	9805	1570	0
1	9806	1570	1
1	9815	1571	2
1	9817	1571	1
1	9828	1572	0
1	9837	1573	1
1	9839	1573	0
1	9866	1578	1
1	9866	1578	0
1	9929	1586	1
1	9929	1586	0
1	9963	1590	1
1	9963	1590	0
1	10036	1599	1
1	10036	1599	0
1	10037	1599	1
1	10047	1600	0
1	10089	1605	1
1	10089	1605	0
1	10193	1619	1
1	10193	1619	0
1	10203	1620	1
1	10207	1620	0
1	10231	1623	1
1	10231	1623	0
1	10248	1625	1
1	10248	1625	0
1	10299	1632	1
1	10299	1632	0
1	10317	1634	1
1	10343	1638	0
1	10376	1642	1
1	10376	1642	0
1	10401	1645	1
1	10401	1645	0
1	10471	1657	1
1	10471	1657	0
1	10510	1664	1
1	10510	1664	0
1	10537	1668	1
1	10537	1668	0
1	10567	1673	1
1	10567	1673	0
1	10608	1679	1
1	10608	1679	0
1	10626	1682	1
1	10626	1682	0
1	10640	1685	1
1	10640	1685	0
1	10650	1686	1
1	10688	1691	0
1	10709	1693	1
1	10709	1693	0
1	10787	1704	1
1	10787	1704	0
1	10813	1707	1
1	10813	1707	0
1	10844	1711	1
1	10844	1711	0
1	10866	1714	1
1	10866	1714	0
1	10911	1724	1
1	10911	1724	0
1	10939	1734	1
1	10939	1734	0
1	10967	1738	1
1	10967	1738	0
1	10994	1743	1
1	10994	1743	0
1	11005	1745	1
1	11017	1749	0
1	11035	1753	1
1	11035	1753	0
1	11040	1754	1
1	11041	1754	2
1	11045	1754	1
1	11055	1755	0
1	11082	1760	1
1	11082	1760	0
1	11103	1765	1
1	11103	1765	0
1	11148	1771	1
1	11148	1771	0
1	11195	1778	1
1	11195	1778	0
1	11196	1778	1
1	11203	1779	0
1	11216	1781	1
1	11216	1781	0
1	11232	1783	1
1	11233	1783	2
1	11253	1787	1
1	11254	1787	2
1	11263	1788	1
1	11274	1789	0
1	11303	1794	1
1	11303	1794	0
1	11329	1797	1
1	11329	1797	0
1	11338	1798	1
1	11339	1798	2
1	11341	1798	1
1	11351	1799	0
1	11380	1803	1
1	11380	1803	0
1	11417	1812	1
1	11417	1812	0
1	11483	1822	1
1	11483	1822	0
1	11540	1832	1
1	11540	1832	0
1	11555	1835	1
1	11555	1835	0
1	11589	1842	1
1	11589	1842	0
1	11707	1859	1
1	11707	1859	0
1	11725	1862	1
1	11725	1862	0
1	11754	1869	1
1	11754	1869	0
1	11789	1876	1
1	11789	1876	0
1	11867	1893	1
1	11867	1893	0
1	11886	1895	1
1	11886	1895	0
1	11897	1896	1
1	11899	1896	0
1	11908	1897	1
1	11944	1902	0
1	11969	1906	1
1	11969	1906	0
1	11989	1908	1
1	11989	1908	0
1	12020	1912	1
1	12020	1912	0
1	12054	1921	1
1	12054	1921	0
1	12107	1933	1
1	12107	1933	0
1	12108	1933	1
1	12119	1934	0
1	12128	1935	1
1	12130	1935	0
1	12147	1940	1
1	12147	1940	0
1	12170	1944	1
1	12170	1944	0
1	12185	1947	1
1	12188	1948	2
1	12191	1949	3
1	12198	1950	2
1	12205	1951	3
1	12207	1951	2
1	12213	1952	1
1	12219	1953	0
1	12241	1959	1
1	12241	1959	0
1	12296	1969	1
1	12296	1969	0
1	12320	1973	1
1	12320	1973	0
1	12392	1983	1
1	12392	1983	0
1	12399	1984	1
1	12400	1984	2
1	12402	1984	1
1	12408	1985	0
1	12416	1987	1
1	12439	1991	0
1	12466	1996	1
1	12466	1996	0
1	12490	1999	1
1	12490	1999	0
1	12506	2001	1
1	12506	2001	0
1	12551	2009	1
1	12551	2009	0
1	12585	2014	1
1	12585	2014	0
1	12592	2015	1
1	12595	2015	0
1	12611	2017	1
1	12611	2017	0
1	12632	2020	1
1	12632	2020	0
1	12659	2025	1
1	12659	2025	0
1	12693	2030	1
1	12700	2031	0
1	12701	2031	1
1	12709	2032	0
1	12750	2041	1
1	12750	2041	0
1	12764	2043	1
1	12764	2043	0
1	12780	2045	1
1	12780	2045	0
1	12818	2050	1
1	12818	2050	0
1	12840	2055	1
1	12840	2055	0
1	12872	2061	1
1	12872	2061	0
1	12896	2064	1
1	12896	2064	0
1	12914	2067	1
1	12914	2067	0
1	12956	2073	1
1	12956	2073	0
1	13047	2086	1
1	13047	2086	0
1	13066	2088	1
1	13066	2088	0
1	13067	2088	1
1	13076	2089	2
1	13078	2089	1
1	13088	2090	0
1	13111	2095	1
1	13111	2095	0
1	13134	2099	1
1	13134	2099	0
1	13175	2108	1
1	13175	2108	0
1	13254	2120	1
1	13254	2120	0
1	13321	2130	1
1	13321	2130	0
1	13330	2131	1
1	13360	2135	2
1	13368	2136	1
1	13376	2137	0
1	13417	2143	1
1	13417	2143	0
1	13478	2153	1
1	13478	2153	0
1	13496	2157	1
1	13496	2157	0
1	13554	2165	1
1	13554	2165	0
1	13614	2173	1
1	13614	2173	0
1	13690	2183	1
1	13690	2183	0
1	13736	2189	1
1	13736	2189	0
1	13761	2192	1
1	13761	2192	0
1	13814	2201	1
1	13814	2201	0
1	13850	2205	1
1	13850	2205	0
1	13867	2207	1
1	13867	2207	0
1	13868	2207	1
1	13878	2208	0
1	13950	2217	1
1	13950	2217	0
1	14045	2229	1
1	14045	2229	0
1	14076	2233	1
1	14076	2233	0
1	14124	2239	1
1	14124	2239	0
1	14136	2240	1
1	14138	2240	0
1	14266	2258	1
1	14266	2258	0
1	14284	2260	1
1	14311	2264	0
1	14422	2279	1
1	14422	2279	0
1	14423	2279	1
1	14432	2280	2
1	14436	2280	1
1	14445	2281	2
1	14446	2281	3
1	14448	2281	2
1	14457	2282	3
1	14458	2282	4
1	14460	2282	3
1	14469	2283	4
1	14470	2283	5
1	14474	2283	4
1	14484	2284	3
1	14496	2285	2
1	14506	2286	1
1	14516	2287	0
1	14628	2303	1
1	14628	2303	0
1	14666	2308	1
1	14666	2308	0
1	14693	2314	1
1	14693	2314	0
1	14710	2316	1
1	14710	2316	0
1	14778	2329	1
1	14778	2329	0
1	14796	2333	1
1	14796	2333	0
1	14797	2333	1
1	14798	2333	2
1	14808	2334	1
1	14815	2335	2
1	14819	2335	1
1	14832	2336	0
1	14874	2342	1
1	14874	2342	0
1	14890	2344	1
1	14906	2346	2
1	14907	2346	3
1	14922	2348	2
1	14931	2349	1
1	14941	2350	0
1	14961	2353	1
1	14961	2353	0
1	14962	2353	1
1	14963	2353	2
1	14973	2354	3
1	14976	2354	2
1	14986	2355	1
1	14996	2356	0
1	15009	2359	1
1	15009	2359	0
1	15010	2359	1
1	15021	2360	2
1	15023	2360	1
1	15033	2361	0
1	15051	2363	1
1	15065	2365	2
1	15077	2367	1
1	15090	2368	0
1	15107	2370	1
1	15107	2370	0
1	15167	2383	1
1	15167	2383	0
1	15185	2385	1
1	15185	2385	0
1	15223	2393	1
1	15223	2393	0
1	15240	2395	1
1	15240	2395	0
1	15258	2398	1
1	15258	2398	0
1	15263	2399	1
1	15264	2399	2
1	15267	2399	1
1	15277	2400	0
1	15285	2402	1
1	15311	2406	0
1	15312	2406	1
1	15322	2407	0
1	15354	2410	1
1	15354	2410	0
1	15372	2412	1
1	15372	2412	0
1	15382	2413	1
1	15385	2413	0
1	15438	2420	1
1	15438	2420	0
1	15487	2427	1
1	15487	2427	0
1	15506	2429	1
1	15506	2429	0
1	15538	2433	1
1	15538	2433	0
1	15563	2436	1
1	15563	2436	0
1	15593	2443	1
1	15593	2443	0
1	15604	2445	1
1	15604	2445	0
1	15650	2454	1
1	15650	2454	0
1	15664	2456	1
1	15664	2456	0
1	15683	2462	1
1	15683	2462	0
1	15698	2467	1
1	15698	2467	0
1	15741	2476	1
1	15741	2476	0
1	15779	2483	1
1	15779	2483	0
1	15861	2494	1
1	15861	2494	0
1	15876	2496	1
1	15876	2496	0
1	15885	2497	1
1	15893	2498	2
1	15894	2498	3
1	15921	2502	2
1	15932	2503	1
1	15942	2504	0
1	15970	2508	1
1	15970	2508	0
1	15990	2511	1
1	15990	2511	0
1	16000	2512	1
1	16002	2512	0
1	16139	2532	1
1	16139	2532	0
1	16165	2535	1
1	16165	2535	0
1	16186	2538	1
1	16186	2538	0
1	16197	2541	1
1	16197	2541	0
1	16198	2541	1
1	16226	2546	2
1	16235	2547	1
1	16246	2548	0
1	16263	2551	1
1	16263	2551	0
1	16276	2553	1
1	16276	2553	0
1	16277	2553	1
1	16288	2554	0
1	16308	2557	1
1	16308	2557	0
1	16328	2561	1
1	16328	2561	0
1	16356	2566	1
1	16356	2566	0
1	16357	2566	1
1	16367	2567	2
1	16369	2567	1
1	16377	2568	0
1	16549	2597	1
1	16549	2597	0
1	16559	2598	1
1	16562	2598	0
1	16623	2608	1
1	16623	2608	0
1	16681	2627	1
1	16681	2627	0
1	16748	2639	1
1	16748	2639	0
1	16785	2645	1
1	16785	2645	0
1	16795	2646	1
1	16797	2646	0
1	16855	2654	1
1	16855	2654	0
1	16879	2657	1
1	16879	2657	0
1	16899	2661	1
1	16899	2661	0
1	16918	2664	1
1	16919	2664	2
1	16933	2666	3
1	16939	2667	2
1	16952	2668	1
1	16962	2669	0
1	16979	2671	1
1	16979	2671	0
1	16980	2671	1
1	16990	2672	0
1	17036	2679	1
1	17036	2679	0
1	17060	2682	1
1	17060	2682	0
1	17071	2684	1
1	17071	2684	0
1	17099	2687	1
1	17099	2687	0
1	17108	2688	1
1	17112	2688	0
1	17168	2695	1
1	17168	2695	0
1	17232	2704	1
1	17232	2704	0
1	17242	2705	1
1	17244	2705	0
1	17261	2707	1
1	17261	2707	0
1	17272	2709	1
1	17272	2709	0
1	17317	2720	1
1	17317	2720	0
1	17333	2723	1
1	17333	2723	0
1	17371	2731	1
1	17371	2731	0
1	17416	2741	1
1	17416	2741	0
1	17428	2743	1
1	17428	2743	0
1	17450	2745	1
1	17478	2749	0
1	17504	2753	1
1	17504	2753	0
1	17511	2754	1
1	17513	2754	0
1	17527	2757	1
1	17527	2757	0
1	17538	2759	1
1	17538	2759	0
1	17613	2774	1
1	17613	2774	0
1	17636	2779	1
1	17636	2779	0
1	17637	2779	1
1	17650	2780	0
1	17677	2784	1
1	17677	2784	0
1	17702	2791	1
1	17702	2791	0
1	17707	2792	1
1	17740	2797	0
1	17833	2811	1
1	17833	2811	0
1	17865	2815	1
1	17865	2815	0
1	17898	2821	1
1	17898	2821	0
1	18023	2838	1
1	18023	2838	0
1	18041	2840	1
1	18041	2840	0
1	18092	2848	1
1	18092	2848	0
1	18120	2852	1
1	18120	2852	0
1	18125	2853	1
1	18127	2853	0
1	18146	2856	1
1	18146	2856	0
1	18184	2862	1
1	18184	2862	0
1	18191	2863	1
1	18194	2863	0
1	18210	2865	1
1	18210	2865	0
1	18247	2873	1
1	18247	2873	0
1	18294	2879	1
1	18294	2879	0
1	18344	2885	1
1	18344	2885	0
1	18356	2886	1
1	18359	2886	0
1	18407	2893	1
1	18407	2893	0
1	18445	2899	1
1	18445	2899	0
1	18497	2910	1
1	18497	2910	0
1	18572	2923	1
1	18572	2923	0
1	18585	2926	1
1	18585	2926	0
1	18626	2932	1
1	18626	2932	0
1	18627	2932	1
1	18641	2933	0
1	18670	2937	1
1	18670	2937	0
1	18709	2941	1
1	18709	2941	0
1	18728	2943	1
1	18728	2943	0
1	18746	2945	1
1	18746	2945	0
1	18763	2947	1
1	18763	2947	0
1	18772	2948	1
1	18773	2948	2
1	18775	2948	1
1	18784	2949	2
1	18813	2954	1
1	18814	2954	2
1	18819	2955	3