version 3
run Experimentos-192-20260508-20:05:45-28795
attr configname Experimentos
attr datetime 20260508-20:05:45
attr datetimef 20260508-200545
attr experiment Experimentos
attr inifile TwoQueues.ini
attr iterationvars "$p=0.6, $q=0.2, $Y=30, $m=3"
attr iterationvarsd p=0.6/q=0.2/Y=30/m=3
attr iterationvarsf p=0.6,q=0.2,Y=30,m=3-
attr measurement "$p=0.6, $q=0.2, $Y=30, $m=3"
attr network TwoQueues
attr processid 28795
attr repetition 12
attr replication #12
attr resultdir results
attr runnumber 192
attr seedset 192
itervar Y 30
itervar m 3
itervar p 0.6
itervar q 0.2
config description "Barrido completo de parámetros Proyecto 12"
config **.source1.p 0.6
config **.source1.q 0.2
config **.source2.p 0.6
config **.source2.q 0.2
config **.serverWithMaintenance.Y 30
config **.serverWithMaintenance.m 3
config network TwoQueues
config cpu-time-limit 5000s
config sim-time-limit 5000s
config warmup-period 400s
config repeat 20
config output-scalar-file results/Experimentos-p=0.6,q=0.2,Y=30,m=3--#12.sca
config output-vector-file results/Experimentos-p=0.6,q=0.2,Y=30,m=3--#12.vec
config **.vector-recording true

vector 0 TwoQueues.serverWithMaintenance residenceTime2:vector ETV
attr recordingmode vector
attr source delay2
attr title "Residence Time Class 2"
vector 1 TwoQueues.queue2 queueLengthStats:vector ETV
attr recordingmode vector
attr source qlen
attr title "Average Queue Length"
vector 2 TwoQueues.queue1 queueLengthStats:vector ETV
attr recordingmode vector
attr source qlen
attr title "Average Queue Length"
vector 3 TwoQueues.server residenceTime1:vector ETV
attr recordingmode vector
attr source delay1
attr title "Residence Time Class 1"
vector 4 TwoQueues.server throughputStats1:vector ETV
attr recordingmode vector
attr source throughput1
attr title "Throughput Class 1"
0	2777	402	1
0	2817	409	1
0	2839	412	1
0	2857	415	1
0	2864	416	2
0	2870	417	3
0	2877	418	3
0	2888	419	2
0	2899	420	1
0	2914	422	1
0	2924	423	1
0	2936	425	1
0	2942	426	2
0	2953	428	1
0	2988	433	1
0	3041	441	1
0	3054	442	2
0	3066	443	1
0	3077	444	2
0	3102	447	1
0	3176	457	1
0	3206	461	1
0	3243	466	1
0	3255	467	1
0	3265	468	2
0	3287	471	1
0	3324	476	1
0	3362	481	1
0	3409	492	1
0	3449	501	1
0	3468	505	4
0	3478	506	3
0	3488	507	4
0	3510	510	1
0	3559	519	1
0	3597	524	1
0	3617	528	1
0	3628	531	1
0	3672	537	1
0	3687	539	1
0	3708	541	1
0	3722	542	1
0	3775	549	1
0	3833	557	1
0	3878	562	1
0	3940	571	1
0	3950	572	1
0	3980	579	1
0	4000	581	1
0	4081	592	1
0	4145	601	1
0	4194	608	1
0	4206	609	1
0	4258	616	1
0	4298	622	1
0	4311	623	1
0	4320	624	2
0	4326	625	3
0	4333	626	1
0	4343	627	1
0	4372	631	2
0	4416	640	1
0	4426	641	2
0	4457	647	1
0	4463	648	2
0	4470	649	1
0	4504	654	1
0	4530	659	1
0	4566	664	1
0	4572	665	2
0	4682	685	1
0	4693	686	1
0	4746	695	1
0	4766	697	1
0	4777	698	2
0	4818	704	1
0	4883	715	1
0	4930	721	1
0	5027	740	1
0	5047	745	1
0	5067	749	1
0	5081	752	1
0	5094	756	1
0	5104	757	1
0	5122	760	1
0	5167	771	1
0	5198	778	1
0	5228	783	1
0	5240	785	1
0	5252	786	1
0	5295	792	1
0	5313	794	1
0	5323	795	1
0	5330	796	1
0	5365	802	1
0	5384	804	1
0	5422	812	1
0	5439	817	1
0	5491	824	1
0	5560	833	1
0	5570	834	2
0	5601	838	1
0	5650	843	1
0	5667	845	1
0	5718	852	1
0	5782	861	1
0	5833	868	1
0	5876	874	1
0	5885	876	1
0	5943	889	1
0	5985	896	1
0	6025	902	1
0	6067	908	1
0	6112	916	1
0	6168	926	1
0	6217	934	1
0	6224	935	2
0	6230	936	2
0	6246	938	1
0	6267	942	1
0	6295	946	1
0	6319	949	1
0	6329	950	1
0	6341	952	1
0	6361	954	1
0	6372	955	1
0	6414	960	1
0	6452	965	1
0	6500	970	1
0	6511	971	1
0	6523	972	1
0	6556	976	1
0	6619	985	1
0	6630	986	1
0	6685	993	1
0	6749	1004	1
0	6770	1006	1
0	6833	1016	1
0	6846	1018	1
0	6856	1019	2
0	6873	1021	1
0	6888	1023	1
0	6921	1027	1
0	7006	1040	1
0	7042	1048	1
0	7111	1061	1
0	7157	1068	1
0	7270	1087	1
0	7321	1095	1
0	7334	1096	1
0	7352	1100	5
0	7358	1101	6
0	7364	1102	7
0	7395	1107	1
0	7406	1108	2
0	7427	1111	1
0	7438	1112	1
0	7454	1113	1
0	7542	1126	1
0	7553	1128	1
0	7601	1138	1
0	7617	1141	1
0	7652	1151	1
0	7659	1152	1
0	7710	1163	1
0	7727	1165	1
0	7754	1168	1
0	7763	1169	2
0	7781	1171	1
0	7792	1172	1
0	7813	1174	1
0	7825	1175	1
0	7856	1179	1
0	7925	1198	1
0	7963	1203	1
0	7973	1204	1
0	7997	1207	1
0	8008	1208	1
0	8020	1209	1
0	8056	1217	1
0	8073	1221	4
0	8117	1228	1
0	8129	1231	1
0	8135	1232	2
0	8160	1235	1
0	8170	1236	2
0	8200	1242	1
0	8222	1246	1
0	8250	1252	1
0	8301	1260	1
0	8342	1269	1
0	8351	1270	2
0	8377	1276	1
0	8429	1283	1
0	8488	1292	1
0	8509	1295	1
0	8539	1299	1
0	8611	1311	1
0	8659	1319	1
0	8673	1321	1
0	8752	1332	1
0	8771	1334	1
0	8788	1336	1
0	8798	1337	1
0	8835	1344	1
0	8872	1349	1
0	8909	1354	1
0	8943	1360	1
0	8987	1368	1
0	9038	1377	1
0	9090	1389	1
0	9097	1390	1
0	9108	1391	1
0	9116	1392	2
0	9133	1394	1
0	9163	1398	1
0	9197	1406	1
0	9208	1407	2
0	9237	1413	1
0	9282	1420	1
0	9386	1438	1
0	9455	1456	1
0	9466	1457	2
0	9507	1465	1
0	9547	1471	1
0	9565	1474	1
0	9584	1477	1
0	9595	1478	1
0	9610	1480	1
0	9707	1495	1
0	9743	1501	1
0	9755	1502	2
0	9766	1503	2
0	9777	1504	3
0	9787	1505	1
0	9794	1506	1
0	9804	1507	1
0	9841	1517	1
0	9917	1529	1
0	9948	1534	1
0	9985	1538	1
0	10008	1540	1
0	10045	1545	1
0	10056	1546	1
0	10068	1547	1
0	10113	1553	1
0	10147	1557	1
0	10165	1559	1
0	10223	1570	1
0	10234	1573	1
0	10271	1579	1
0	10311	1588	1
0	10321	1589	1
0	10343	1592	1
0	10499	1617	1
0	10511	1618	1
0	10523	1620	1
0	10537	1622	1
0	10562	1626	1
0	10585	1628	1
0	10609	1631	1
0	10620	1632	1
0	10632	1633	1
0	10656	1638	1
0	10763	1656	1
0	10794	1663	1
0	10811	1668	1
0	10821	1669	1
0	10828	1670	1
0	10839	1673	1
0	10877	1678	1
0	10888	1679	1
0	10939	1686	1
0	10985	1696	1
0	11018	1701	1
0	11039	1705	1
0	11088	1712	1
0	11149	1720	1
0	11172	1723	1
0	11196	1726	1
0	11206	1727	1
0	11240	1731	1
0	11313	1741	1
0	11353	1751	1
0	11387	1759	1
0	11421	1765	1
0	11432	1766	1
0	11443	1767	2
0	11454	1768	1
0	11479	1771	1
0	11542	1780	1
0	11581	1785	1
0	11681	1803	1
0	11693	1804	1
0	11726	1808	1
0	11743	1810	1
0	11762	1812	1
0	11829	1822	1
0	11835	1823	2
0	11906	1834	1
0	11940	1838	1
0	11988	1848	1
0	12002	1849	1
0	12020	1851	1
0	12096	1862	1
0	12124	1868	1
0	12146	1872	1
0	12190	1879	1
0	12216	1883	1
0	12227	1884	1
0	12239	1885	1
0	12250	1886	1
0	12278	1890	1
0	12369	1902	1
0	12401	1906	1
0	12448	1912	1
0	12489	1919	1
0	12553	1927	1
0	12566	1928	1
0	12597	1932	1
0	12677	1943	1
0	12729	1950	1
0	12801	1962	1
0	12815	1965	1
0	12852	1970	1
0	12867	1971	1
0	12902	1976	1
0	12911	1978	1
0	12936	1982	1
0	12960	1986	1
0	12990	1990	3
0	13001	1991	1
0	13017	1993	1
0	13037	1996	1
0	13061	1999	1
0	13073	2000	1
0	13120	2005	1
0	13133	2006	2
0	13150	2008	1
0	13189	2013	1
0	13246	2020	1
0	13259	2021	1
0	13314	2028	1
0	13368	2035	1
0	13394	2037	1
0	13411	2039	1
0	13448	2044	1
0	13487	2049	1
0	13499	2050	1
0	13549	2057	1
0	13591	2063	1
0	13631	2070	1
0	13706	2087	1
0	13749	2092	1
0	13759	2093	2
0	13797	2098	1
0	13808	2099	1
0	13821	2100	1
0	13834	2101	1
0	13886	2108	1
0	13925	2113	1
0	13971	2122	1
0	13988	2124	1
0	14045	2131	1
0	14057	2132	2
0	14073	2133	2
0	14091	2135	1
0	14102	2136	2
0	14112	2137	2
0	14135	2140	1
0	14195	2149	1
0	14213	2151	1
0	14232	2153	1
0	14263	2158	1
0	14272	2160	1
0	14291	2166	1
0	14427	2188	1
0	14470	2196	1
0	14476	2197	2
0	14495	2203	1
0	14507	2204	1
0	14522	2206	1
0	14578	2213	1
0	14629	2222	1
0	14641	2223	1
0	14663	2228	1
0	14685	2234	1
0	14697	2236	1
0	14707	2237	2
0	14713	2238	2
0	14744	2243	1
0	14857	2264	1
0	14912	2272	1
0	14919	2273	1
0	14927	2274	1
0	14933	2275	2
0	14977	2287	1
0	15018	2294	1
0	15047	2298	1
0	15058	2299	1
0	15068	2300	1
0	15075	2301	1
0	15087	2304	1
0	15093	2305	2
0	15104	2307	1
0	15141	2314	1
0	15215	2331	1
0	15272	2342	1
0	15293	2345	1
0	15337	2352	1
0	15490	2377	1
0	15501	2378	1
0	15527	2381	1
0	15540	2383	1
0	15549	2384	2
0	15582	2392	1
0	15629	2398	1
0	15664	2403	1
0	15671	2404	1
0	15683	2406	1
0	15718	2411	1
0	15790	2423	1
0	15801	2424	2
0	15864	2435	1
0	15871	2436	1
0	15885	2438	1
0	15894	2440	1
0	15915	2443	1
0	15924	2445	1
0	15942	2447	1
0	16000	2459	1
0	16010	2460	2
0	16023	2461	2
0	16034	2462	1
0	16114	2473	1
0	16125	2474	1
0	16136	2475	1
0	16146	2476	1
0	16187	2484	1
0	16231	2490	1
0	16241	2491	1
0	16255	2494	1
0	16295	2499	1
0	16413	2519	1
0	16420	2520	2
0	16426	2521	2
0	16449	2524	1
0	16471	2527	1
0	16480	2528	2
0	16494	2530	1
0	16568	2547	1
0	16588	2549	1
0	16599	2550	1
0	16617	2552	1
0	16641	2557	1
0	16707	2573	1
0	16714	2574	2
0	16723	2575	2
0	16768	2589	1
0	16791	2592	1
0	16805	2593	1
0	16816	2594	1
0	16828	2595	1
0	16869	2601	1
0	16885	2605	1
0	16942	2615	1
0	17033	2633	1
0	17047	2636	1
0	17068	2643	1
0	17115	2651	1
0	17141	2657	1
0	17153	2659	1
0	17199	2676	1
0	17236	2683	1
0	17245	2685	1
0	17254	2687	1
0	17378	2707	1
0	17441	2723	1
0	17512	2734	1
0	17524	2735	2
0	17586	2744	1
0	17596	2745	1
0	17625	2749	1
0	17634	2750	2
0	17643	2751	1
0	17650	2752	1
0	17686	2757	1
0	17732	2763	1
0	17764	2767	1
0	17782	2769	1
0	17905	2786	1
0	17958	2797	1
0	18039	2809	1
0	18160	2828	1
0	18180	2831	1
0	18197	2833	1
0	18207	2834	1
0	18232	2838	1
0	18242	2839	1
0	18264	2844	1
0	18276	2845	1
0	18301	2848	1
0	18318	2850	1
0	18362	2858	1
0	18380	2861	1
0	18427	2867	1
0	18474	2875	1
0	18492	2878	1
0	18518	2882	1
0	18532	2883	2
0	18569	2887	4
0	18579	2888	4
0	18613	2892	1
0	18625	2893	2
0	18642	2895	1
0	18700	2903	1
0	18784	2914	1
0	18819	2919	1
0	18842	2921	1
0	18859	2923	1
0	18914	2931	1
0	18924	2932	2
0	18937	2933	1
0	18991	2940	1
0	19002	2941	2
0	19020	2943	1
0	19030	2944	1
0	19053	2949	1
0	19065	2950	1
0	19094	2953	1
0	19111	2955	1
0	19150	2960	1
0	19169	2962	1
0	19178	2963	2
0	19189	2964	1
0	19200	2965	1
0	19217	2969	1
0	19238	2972	1
0	19258	2978	1
0	19327	2990	1
0	19360	2994	4
0	19374	2995	4
0	19385	2996	1
0	19419	3000	1
0	19469	3008	1
0	19482	3011	1
0	19536	3021	1
0	19546	3022	2
0	19558	3023	1
0	19569	3024	1
0	19581	3025	1
0	19608	3030	1
0	19633	3035	1
0	19656	3038	1
0	19679	3040	1
0	19689	3041	2
0	19706	3043	1
0	19718	3044	1
0	19759	3053	1
0	19768	3055	1
0	19775	3056	1
0	19791	3058	1
0	19804	3059	1
0	19834	3067	1
0	19869	3073	1
0	19887	3077	1
0	19911	3080	1
0	19921	3081	2
0	19933	3082	2
0	20038	3105	1
0	20069	3109	2
0	20110	3117	1
0	20159	3126	1
0	20214	3140	1
0	20267	3149	1
0	20279	3150	1
0	20290	3151	1
0	20301	3152	1
0	20320	3154	1
0	20332	3155	2
0	20350	3158	1
0	20361	3160	1
0	20433	3173	1
0	20457	3178	1
0	20478	3180	1
0	20489	3181	2
0	20540	3188	1
0	20600	3203	1
0	20620	3209	1
0	20644	3215	1
0	20658	3217	1
0	20700	3228	1
0	20707	3229	1
0	20744	3235	1
0	20771	3240	1
0	20783	3241	1
0	20805	3245	1
0	20815	3246	2
0	20848	3250	1
0	20859	3251	1
0	20888	3255	3
0	20899	3256	4
0	20922	3262	1
0	20934	3263	1
0	20960	3266	1
0	21001	3273	1
0	21032	3277	1
0	21045	3278	1
0	21056	3279	2
0	21079	3282	1
0	21135	3295	1
0	21187	3302	1
0	21281	3318	1
0	21292	3319	1
0	21328	3323	1
0	21360	3327	1
0	21371	3328	2
0	21382	3329	2
0	21428	3335	1
0	21483	3344	1
0	21550	3361	1
0	21577	3365	1
0	21632	3372	1
0	21669	3379	1
0	21675	3380	2
0	21686	3383	1
0	21743	3394	1
0	21750	3395	1
0	21760	3396	1
0	21793	3402	1
0	21825	3406	2
0	21835	3407	1
0	21856	3410	1
0	21970	3427	1
0	21977	3428	1
0	22051	3439	1
0	22133	3451	1
0	22163	3454	1
0	22191	3457	1
0	22252	3466	1
0	22269	3468	1
0	22281	3469	1
0	22292	3470	1
0	22318	3473	1
0	22339	3475	1
0	22356	3477	1
0	22372	3478	1
0	22383	3479	1
0	22413	3483	1
0	22427	3484	1
0	22466	3489	1
0	22506	3494	1
0	22516	3495	2
0	22528	3496	1
0	22546	3498	1
0	22565	3500	1
0	22575	3501	2
0	22595	3504	1
0	22601	3505	2
0	22643	3516	1
0	22657	3520	4
0	22664	3521	1
0	22690	3525	1
0	22736	3532	1
0	22764	3541	1
0	22771	3542	1
0	22778	3543	1
0	22788	3544	1
0	22850	3555	1
0	22927	3567	1
0	22933	3568	2
0	22977	3574	1
0	22990	3576	1
0	22999	3577	2
0	23010	3579	1
0	23027	3581	1
0	23039	3582	1
0	23051	3583	1
0	23085	3588	1
0	23095	3589	1
0	23154	3600	1
0	23179	3605	1
0	23225	3614	1
0	23246	3617	1
0	23253	3618	1
0	23263	3620	1
0	23269	3621	2
0	23276	3622	1
0	23335	3632	1
0	23366	3636	1
0	23480	3651	1
0	23548	3660	1
0	23558	3661	2
0	23582	3664	1
0	23591	3665	2
0	23612	3672	1
0	23641	3679	1
0	23659	3681	1
0	23671	3682	2
0	23709	3688	1
0	23755	3694	1
0	23767	3695	1
0	23778	3696	1
0	23794	3698	1
0	23801	3699	1
0	23808	3700	1
0	23854	3710	1
0	23860	3711	2
0	23884	3713	1
0	23939	3720	1
0	23970	3724	1
0	24007	3729	1
0	24144	3748	1
0	24158	3749	1
0	24356	3779	1
0	24373	3784	1
0	24394	3788	1
0	24419	3791	1
0	24430	3792	1
0	24464	3798	1
0	24494	3804	1
0	24523	3810	1
0	24564	3820	1
0	24729	3849	1
0	24741	3850	1
0	24797	3857	1
0	24872	3866	1
0	24978	3881	1
0	24996	3883	1
0	25026	3887	1
0	25037	3888	1
0	25073	3897	1
0	25113	3905	1
0	25131	3907	1
0	25146	3908	1
0	25196	3915	1
0	25221	3920	1
0	25233	3921	1
0	25265	3928	1
0	25299	3935	1
0	25327	3939	1
0	25352	3944	1
0	25368	3945	1
0	25409	3951	1
0	25441	3956	1
0	25450	3958	1
0	25516	3969	1
0	25527	3970	1
0	25566	3977	1
0	25611	3983	1
0	25629	3987	5
0	25647	3990	1
0	25657	3991	1
0	25667	3993	1
0	25673	3994	2
0	25723	4003	1
0	25737	4004	1
0	25748	4005	1
0	25773	4009	1
0	25791	4013	1
0	25808	4015	1
0	25817	4016	2
0	25857	4024	1
0	25875	4026	1
0	25945	4040	1
0	26006	4050	1
0	26017	4051	1
0	26061	4058	1
0	26113	4069	1
0	26140	4076	1
0	26149	4077	2
0	26163	4080	1
0	26174	4081	2
0	26190	4084	1
0	26253	4099	1
0	26295	4105	1
0	26344	4112	1
0	26395	4125	1
0	26440	4134	1
0	26459	4137	1
0	26547	4151	1
0	26599	4159	1
0	26611	4160	1
0	26643	4164	1
0	26705	4172	1
0	26715	4173	2
0	26742	4176	1
0	26752	4177	2
0	26762	4178	1
0	26783	4183	1
0	26792	4184	2
0	26822	4190	1
0	26828	4191	2
0	26865	4201	1
0	26898	4205	1
0	26910	4206	1
0	26920	4207	1
0	26934	4209	1
0	26964	4214	1
0	26989	4218	1
0	27051	4234	1
0	27065	4236	1
0	27092	4240	1
0	27103	4241	1
0	27170	4250	1
0	27181	4251	1
0	27278	4271	1
0	27316	4276	1
0	27335	4278	1
0	27416	4294	1
0	27451	4298	2
0	27460	4299	2
0	27469	4301	1
0	27488	4303	1
0	27556	4315	1
0	27574	4317	1
0	27639	4327	1
0	27657	4329	1
0	27675	4334	1
0	27706	4338	1
0	27722	4340	1
0	27773	4353	1
0	27780	4354	1
0	27819	4366	1
0	27830	4369	1
0	27868	4374	1
0	27895	4377	1
0	27921	4381	1
0	27931	4382	1
0	27943	4383	1
0	27954	4384	2
0	27962	4385	2
0	27972	4386	1
0	27983	4388	1
0	28007	4395	1
0	28016	4397	1
0	28062	4406	1
0	28079	4408	1
0	28085	4409	2
0	28120	4419	1
0	28151	4423	3
0	28161	4424	1
0	28177	4427	1
0	28250	4439	1
0	28278	4444	1
0	28420	4467	1
0	28463	4473	1
0	28503	4478	1
0	28538	4482	1
0	28548	4483	2
0	28621	4499	1
0	28708	4516	1
0	28757	4525	1
0	28828	4535	1
0	28846	4539	1
0	28866	4544	1
0	28886	4548	1
0	28953	4561	1
0	28964	4562	1
0	28990	4566	1
0	29000	4567	1
0	29018	4569	1
0	29040	4574	1
0	29078	4580	1
0	29089	4581	1
0	29097	4582	2
0	29182	4601	1
0	29230	4610	1
0	29249	4613	1
0	29258	4615	1
0	29288	4621	1
0	29306	4624	1
0	29375	4634	1
0	29386	4635	2
0	29529	4655	1
0	29539	4656	2
0	29643	4674	1
0	29711	4685	1
0	29723	4686	1
0	29806	4701	1
0	29842	4709	1
0	29908	4722	1
0	29915	4723	1
0	29925	4724	1
0	30027	4743	1
0	30037	4744	1
0	30065	4749	1
0	30085	4751	1
0	30139	4758	1
0	30220	4773	1
0	30250	4777	1
0	30276	4780	1
0	30398	4801	1
0	30435	4809	1
0	30444	4810	2
0	30469	4814	1
0	30479	4815	1
0	30551	4828	1
0	30560	4829	2
0	30591	4836	1
0	30613	4840	1
0	30638	4844	1
0	30675	4851	1
0	30686	4852	1
0	30707	4856	1
0	30751	4863	1
0	30779	4867	1
0	30815	4873	1
0	30902	4886	1
0	30940	4892	1
0	30946	4893	2
0	30958	4895	1
0	30983	4898	1
0	31005	4901	1
0	31037	4905	1
0	31069	4910	1
0	31118	4919	1
0	31160	4929	1
0	31185	4934	1
0	31201	4937	1
0	31385	4977	1
0	31391	4978	2
0	31404	4982	1
0	31488	4994	1
1	2770	401	1
1	2770	401	0
1	2810	408	1
1	2810	408	0
1	2833	411	1
1	2833	411	0
1	2849	414	1
1	2849	414	0
1	2850	414	1
1	2851	414	2
1	2858	415	3
1	2860	415	2
1	2866	416	1
1	2871	417	2
1	2873	417	1
1	2882	418	0
1	2889	419	1
1	2893	419	0
1	2908	421	1
1	2908	421	0
1	2915	422	1
1	2918	422	0
1	2931	424	1
1	2931	424	0
1	2932	424	1
1	2938	425	0
1	2947	427	1
1	2947	427	0
1	2982	432	1
1	2982	432	0
1	3033	440	1
1	3033	440	0
1	3034	440	1
1	3047	441	0
1	3056	442	1
1	3057	442	2
1	3059	442	1
1	3070	443	0
1	3094	446	1
1	3094	446	0
1	3167	456	1
1	3167	456	0
1	3199	460	1
1	3199	460	0
1	3236	465	1
1	3236	465	0
1	3245	466	1
1	3246	466	2
1	3248	466	1
1	3258	467	0
1	3281	470	1
1	3281	470	0
1	3317	475	1
1	3317	475	0
1	3356	480	1
1	3356	480	0
1	3403	491	1
1	3403	491	0
1	3441	500	1
1	3441	500	0
1	3451	501	1
1	3459	503	2
1	3460	503	3
1	3464	504	2
1	3472	505	1
1	3482	506	0
1	3503	509	1
1	3503	509	0
1	3555	518	1
1	3555	518	0
1	3590	523	1
1	3590	523	0
1	3613	527	1
1	3613	527	0
1	3624	530	1
1	3624	530	0
1	3665	536	1
1	3665	536	0
1	3680	538	1
1	3680	538	0
1	3700	540	1
1	3700	540	0
1	3710	541	1
1	3715	541	0
1	3766	548	1
1	3766	548	0
1	3826	556	1
1	3826	556	0
1	3868	561	1
1	3868	561	0
1	3933	570	1
1	3933	570	0
1	3942	571	1
1	3944	571	0
1	3970	578	1
1	3970	578	0
1	3991	580	1
1	3991	580	0
1	4072	591	1
1	4072	591	0
1	4138	600	1
1	4138	600	0
1	4185	607	1
1	4185	607	0
1	4196	608	1
1	4199	608	0
1	4250	615	1
1	4250	615	0
1	4291	621	1
1	4291	621	0
1	4300	622	1
1	4301	622	2
1	4302	622	3
1	4304	622	2
1	4314	623	1
1	4322	624	0
1	4327	625	1
1	4329	625	0
1	4334	626	1
1	4337	626	0
1	4355	629	1
1	4364	630	0
1	4408	639	1
1	4408	639	0
1	4409	639	1
1	4419	640	0
1	4452	646	1
1	4452	646	0
1	4453	646	1
1	4459	647	0
1	4464	648	1
1	4466	648	0
1	4497	653	1
1	4497	653	0
1	4526	658	1
1	4526	658	0
1	4559	663	1
1	4559	663	0
1	4560	663	1
1	4568	664	0
1	4676	684	1
1	4676	684	0
1	4683	685	1
1	4687	685	0
1	4737	694	1
1	4737	694	0
1	4757	696	1
1	4757	696	0
1	4758	696	1
1	4770	697	0
1	4811	703	1
1	4811	703	0
1	4876	714	1
1	4876	714	0
1	4923	720	1
1	4923	720	0
1	5021	739	1
1	5021	739	0
1	5043	744	1
1	5043	744	0
1	5061	748	1
1	5061	748	0
1	5077	751	1
1	5077	751	0
1	5090	755	1
1	5090	755	0
1	5095	756	1
1	5098	756	0
1	5116	759	1
1	5116	759	0
1	5160	770	1
1	5160	770	0
1	5194	777	1
1	5194	777	0
1	5222	782	1
1	5222	782	0
1	5233	784	1
1	5233	784	0
1	5242	785	1
1	5245	785	0
1	5288	791	1
1	5288	791	0
1	5306	793	1
1	5306	793	0
1	5315	794	1
1	5317	794	0
1	5324	795	1
1	5326	795	0
1	5357	801	1
1	5357	801	0
1	5375	803	1
1	5375	803	0
1	5418	811	1
1	5418	811	0
1	5433	816	1
1	5433	816	0
1	5483	823	1
1	5483	823	0
1	5552	832	1
1	5552	832	0
1	5553	832	1
1	5563	833	0
1	5594	837	1
1	5594	837	0
1	5638	842	1
1	5638	842	0
1	5660	844	1
1	5660	844	0
1	5711	851	1
1	5711	851	0
1	5775	860	1
1	5775	860	0
1	5826	867	1
1	5826	867	0
1	5870	873	1
1	5870	873	0
1	5881	875	1
1	5881	875	0
1	5935	888	1
1	5935	888	0
1	5979	895	1
1	5979	895	0
1	6015	901	1
1	6015	901	0
1	6060	907	1
1	6060	907	0
1	6104	915	1
1	6104	915	0
1	6159	925	1
1	6159	925	0
1	6212	933	1
1	6212	933	0
1	6213	933	1
1	6218	934	2
1	6220	934	1
1	6226	935	0
1	6239	937	1
1	6239	937	0
1	6261	941	1
1	6261	941	0
1	6286	945	1
1	6286	945	0
1	6312	948	1
1	6312	948	0
1	6321	949	1
1	6323	949	0
1	6334	951	1
1	6334	951	0
1	6354	953	1
1	6354	953	0
1	6363	954	1
1	6365	954	0
1	6405	959	1
1	6405	959	0
1	6445	964	1
1	6445	964	0
1	6486	969	1
1	6486	969	0
1	6502	970	1
1	6504	970	0
1	6513	971	1
1	6516	971	0
1	6549	975	1
1	6549	975	0
1	6612	984	1
1	6612	984	0
1	6621	985	1
1	6623	985	0
1	6677	992	1
1	6677	992	0
1	6742	1003	1
1	6742	1003	0
1	6760	1005	1
1	6760	1005	0
1	6825	1015	1
1	6825	1015	0
1	6841	1017	1
1	6841	1017	0
1	6842	1017	1
1	6850	1018	0
1	6865	1020	1
1	6865	1020	0
1	6881	1022	1
1	6881	1022	0
1	6913	1026	1
1	6913	1026	0
1	6999	1039	1
1	6999	1039	0
1	7036	1047	1
1	7036	1047	0
1	7107	1060	1
1	7107	1060	0
1	7149	1067	1
1	7149	1067	0
1	7264	1086	1
1	7264	1086	0
1	7313	1094	1
1	7313	1094	0
1	7323	1095	1
1	7324	1095	2
1	7325	1095	3
1	7326	1095	4
1	7328	1095	3
1	7346	1099	2
1	7354	1100	1
1	7360	1101	0
1	7390	1106	1
1	7390	1106	0
1	7391	1106	1
1	7400	1107	0
1	7421	1110	1
1	7421	1110	0
1	7428	1111	1
1	7432	1111	0
1	7439	1112	1
1	7448	1112	0
1	7536	1125	1
1	7536	1125	0
1	7547	1127	1
1	7547	1127	0
1	7595	1137	1
1	7595	1137	0
1	7611	1140	1
1	7611	1140	0
1	7648	1150	1
1	7648	1150	0
1	7653	1151	1
1	7655	1151	0
1	7702	1162	1
1	7702	1162	0
1	7720	1164	1
1	7720	1164	0
1	7746	1167	1
1	7746	1167	0
1	7747	1167	1
1	7757	1168	0
1	7774	1170	1
1	7774	1170	0
1	7783	1171	1
1	7785	1171	0
1	7803	1173	1
1	7803	1173	0
1	7815	1174	1
1	7818	1174	0
1	7849	1178	1
1	7849	1178	0
1	7917	1197	1
1	7917	1197	0
1	7955	1202	1
1	7955	1202	0
1	7965	1203	1
1	7967	1203	0
1	7990	1206	1
1	7990	1206	0
1	7999	1207	1
1	8001	1207	0
1	8010	1208	1
1	8013	1208	0
1	8048	1216	1
1	8048	1216	0
1	8058	1217	1
1	8069	1220	0
1	8111	1227	1
1	8111	1227	0
1	8124	1230	1
1	8124	1230	0
1	8125	1230	1
1	8131	1231	0
1	8152	1234	1
1	8152	1234	0
1	8153	1234	1
1	8163	1235	0
1	8196	1241	1
1	8196	1241	0
1	8215	1245	1
1	8215	1245	0
1	8246	1251	1
1	8246	1251	0
1	8295	1259	1
1	8295	1259	0
1	8334	1268	1
1	8334	1268	0
1	8335	1268	1
1	8345	1269	0
1	8369	1275	1
1	8369	1275	0
1	8421	1282	1
1	8421	1282	0
1	8480	1291	1
1	8480	1291	0
1	8502	1294	1
1	8502	1294	0
1	8533	1298	1
1	8533	1298	0
1	8604	1310	1
1	8604	1310	0
1	8655	1318	1
1	8655	1318	0
1	8667	1320	1
1	8667	1320	0
1	8745	1331	1
1	8745	1331	0
1	8764	1333	1
1	8764	1333	0
1	8782	1335	1
1	8782	1335	0
1	8789	1336	1
1	8792	1336	0
1	8827	1343	1
1	8827	1343	0
1	8863	1348	1
1	8863	1348	0
1	8903	1353	1
1	8903	1353	0
1	8937	1359	1
1	8937	1359	0
1	8981	1367	1
1	8981	1367	0
1	9031	1376	1
1	9031	1376	0
1	9086	1388	1
1	9086	1388	0
1	9091	1389	1
1	9093	1389	0
1	9098	1390	1
1	9099	1390	2
1	9102	1390	1
1	9112	1391	0
1	9126	1393	1
1	9126	1393	0
1	9157	1397	1
1	9157	1397	0
1	9188	1405	1
1	9188	1405	0
1	9189	1405	1
1	9201	1406	0
1	9229	1412	1
1	9229	1412	0
1	9278	1419	1
1	9278	1419	0
1	9379	1437	1
1	9379	1437	0
1	9448	1455	1
1	9448	1455	0
1	9449	1455	1
1	9460	1456	0
1	9503	1464	1
1	9503	1464	0
1	9540	1470	1
1	9540	1470	0
1	9561	1473	1
1	9561	1473	0
1	9575	1476	1
1	9575	1476	0
1	9586	1477	1
1	9588	1477	0
1	9603	1479	1
1	9603	1479	0
1	9701	1494	1
1	9701	1494	0
1	9735	1500	1
1	9735	1500	0
1	9736	1500	1
1	9745	1501	2
1	9746	1501	3
1	9748	1501	2
1	9759	1502	1
1	9770	1503	0
1	9779	1504	1
1	9781	1504	0
1	9788	1505	1
1	9790	1505	0
1	9795	1506	1
1	9798	1506	0
1	9835	1516	1
1	9835	1516	0
1	9911	1528	1
1	9911	1528	0
1	9939	1533	1
1	9939	1533	0
1	9974	1537	1
1	9974	1537	0
1	9997	1539	1
1	9997	1539	0
1	10038	1544	1
1	10038	1544	0
1	10047	1545	1
1	10049	1545	0
1	10058	1546	1
1	10061	1546	0
1	10106	1552	1
1	10106	1552	0
1	10138	1556	1
1	10138	1556	0
1	10157	1558	1
1	10157	1558	0
1	10219	1569	1
1	10219	1569	0
1	10230	1572	1
1	10230	1572	0
1	10265	1578	1
1	10265	1578	0
1	10305	1587	1
1	10305	1587	0
1	10313	1588	1
1	10315	1588	0
1	10333	1591	1
1	10333	1591	0
1	10491	1616	1
1	10491	1616	0
1	10501	1617	1
1	10504	1617	0
1	10519	1619	1
1	10519	1619	0
1	10531	1621	1
1	10531	1621	0
1	10554	1625	1
1	10554	1625	0
1	10576	1627	1
1	10576	1627	0
1	10602	1630	1
1	10602	1630	0
1	10611	1631	1
1	10613	1631	0
1	10622	1632	1
1	10625	1632	0
1	10650	1637	1
1	10650	1637	0
1	10756	1655	1
1	10756	1655	0
1	10790	1662	1
1	10790	1662	0
1	10805	1667	1
1	10805	1667	0
1	10813	1668	1
1	10815	1668	0
1	10822	1669	1
1	10824	1669	0
1	10835	1672	1
1	10835	1672	0
1	10868	1677	1
1	10868	1677	0
1	10879	1678	1
1	10881	1678	0
1	10931	1685	1
1	10931	1685	0
1	10975	1695	1
1	10975	1695	0
1	11012	1700	1
1	11012	1700	0
1	11035	1704	1
1	11035	1704	0
1	11081	1711	1
1	11081	1711	0
1	11142	1719	1
1	11142	1719	0
1	11165	1722	1
1	11165	1722	0
1	11190	1725	1
1	11190	1725	0
1	11197	1726	1
1	11200	1726	0
1	11231	1730	1
1	11231	1730	0
1	11306	1740	1
1	11306	1740	0
1	11347	1750	1
1	11347	1750	0
1	11383	1758	1
1	11383	1758	0
1	11415	1764	1
1	11415	1764	0
1	11423	1765	1
1	11424	1765	2
1	11426	1765	1
1	11437	1766	0
1	11444	1767	1
1	11448	1767	0
1	11472	1770	1
1	11472	1770	0
1	11534	1779	1
1	11534	1779	0
1	11574	1784	1
1	11574	1784	0
1	11674	1802	1
1	11674	1802	0
1	11683	1803	1
1	11686	1803	0
1	11719	1807	1
1	11719	1807	0
1	11736	1809	1
1	11736	1809	0
1	11755	1811	1
1	11755	1811	0
1	11822	1821	1
1	11822	1821	0
1	11823	1821	1
1	11831	1822	0
1	11898	1833	1
1	11898	1833	0
1	11933	1837	1
1	11933	1837	0
1	11982	1847	1
1	11982	1847	0
1	11990	1848	1
1	11995	1848	0
1	12013	1850	1
1	12013	1850	0
1	12089	1861	1
1	12089	1861	0
1	12115	1867	1
1	12115	1867	0
1	12140	1871	1
1	12140	1871	0
1	12184	1878	1
1	12184	1878	0
1	12212	1882	1
1	12212	1882	0
1	12217	1883	1
1	12221	1883	0
1	12228	1884	1
1	12233	1884	0
1	12240	1885	1
1	12244	1885	0
1	12269	1889	1
1	12269	1889	0
1	12359	1901	1
1	12359	1901	0
1	12393	1905	1
1	12393	1905	0
1	12440	1911	1
1	12440	1911	0
1	12479	1918	1
1	12479	1918	0
1	12546	1926	1
1	12546	1926	0
1	12555	1927	1
1	12559	1927	0
1	12590	1931	1
1	12590	1931	0
1	12670	1942	1
1	12670	1942	0
1	12722	1949	1
1	12722	1949	0
1	12794	1961	1
1	12794	1961	0
1	12811	1964	1
1	12811	1964	0
1	12844	1969	1
1	12844	1969	0
1	12854	1970	1
1	12860	1970	0
1	12896	1975	1
1	12896	1975	0
1	12907	1977	1
1	12907	1977	0
1	12928	1981	1
1	12928	1981	0
1	12953	1985	1
1	12953	1985	0
1	12969	1987	1
1	12982	1989	0
1	12992	1990	1
1	12994	1990	0
1	13011	1992	1
1	13011	1992	0
1	13028	1995	1
1	13028	1995	0
1	13054	1998	1
1	13054	1998	0
1	13063	1999	1
1	13066	1999	0
1	13112	2004	1
1	13112	2004	0
1	13113	2004	1
1	13126	2005	0
1	13143	2007	1
1	13143	2007	0
1	13182	2012	1
1	13182	2012	0
1	13236	2019	1
1	13236	2019	0
1	13248	2020	1
1	13252	2020	0
1	13307	2027	1
1	13307	2027	0
1	13361	2034	1
1	13361	2034	0
1	13380	2036	1
1	13380	2036	0
1	13404	2038	1
1	13404	2038	0
1	13441	2043	1
1	13441	2043	0
1	13478	2048	1
1	13478	2048	0
1	13489	2049	1
1	13492	2049	0
1	13542	2056	1
1	13542	2056	0
1	13584	2062	1
1	13584	2062	0
1	13627	2069	1
1	13627	2069	0
1	13696	2086	1
1	13696	2086	0
1	13741	2091	1
1	13741	2091	0
1	13742	2091	1
1	13752	2092	0
1	13790	2097	1
1	13790	2097	0
1	13799	2098	1
1	13801	2098	0
1	13810	2099	1
1	13814	2099	0
1	13823	2100	1
1	13827	2100	0
1	13876	2107	1
1	13876	2107	0
1	13918	2112	1
1	13918	2112	0
1	13967	2121	1
1	13967	2121	0
1	13979	2123	1
1	13979	2123	0
1	14037	2130	1
1	14037	2130	0
1	14038	2130	1
1	14047	2131	2
1	14050	2131	1
1	14066	2132	0
1	14083	2134	1
1	14083	2134	0
1	14084	2134	1
1	14093	2135	2
1	14095	2135	1
1	14105	2136	0
1	14128	2139	1
1	14128	2139	0
1	14189	2148	1
1	14189	2148	0
1	14203	2150	1
1	14203	2150	0
1	14224	2152	1
1	14224	2152	0
1	14259	2157	1
1	14259	2157	0
1	14268	2159	1
1	14268	2159	0
1	14285	2165	1
1	14285	2165	0
1	14420	2187	1
1	14420	2187	0
1	14465	2195	1
1	14465	2195	0
1	14466	2195	1
1	14472	2196	0
1	14489	2202	1
1	14489	2202	0
1	14497	2203	1
1	14500	2203	0
1	14515	2205	1
1	14515	2205	0
1	14571	2212	1
1	14571	2212	0
1	14622	2221	1
1	14622	2221	0
1	14631	2222	1
1	14634	2222	0
1	14659	2227	1
1	14659	2227	0
1	14681	2233	1
1	14681	2233	0
1	14690	2235	1
1	14690	2235	0
1	14691	2235	1
1	14699	2236	2
1	14701	2236	1
1	14709	2237	0
1	14740	2242	1
1	14740	2242	0
1	14850	2263	1
1	14850	2263	0
1	14906	2271	1
1	14906	2271	0
1	14913	2272	1
1	14915	2272	0
1	14920	2273	1
1	14921	2273	2
1	14923	2273	1
1	14929	2274	0
1	14970	2286	1
1	14970	2286	0
1	15010	2293	1
1	15010	2293	0
1	15040	2297	1
1	15040	2297	0
1	15049	2298	1
1	15051	2298	0
1	15060	2299	1
1	15062	2299	0
1	15069	2300	1
1	15071	2300	0
1	15082	2303	1
1	15082	2303	0
1	15083	2303	1
1	15089	2304	0
1	15098	2306	1
1	15098	2306	0
1	15131	2313	1
1	15131	2313	0
1	15211	2330	1
1	15211	2330	0
1	15266	2341	1
1	15266	2341	0
1	15284	2344	1
1	15284	2344	0
1	15333	2351	1
1	15333	2351	0
1	15481	2376	1
1	15481	2376	0
1	15492	2377	1
1	15494	2377	0
1	15520	2380	1
1	15520	2380	0
1	15535	2382	1
1	15535	2382	0
1	15536	2382	1
1	15543	2383	0
1	15573	2391	1
1	15573	2391	0
1	15622	2397	1
1	15622	2397	0
1	15658	2402	1
1	15658	2402	0
1	15665	2403	1
1	15667	2403	0
1	15676	2405	1
1	15676	2405	0
1	15710	2410	1
1	15710	2410	0
1	15782	2422	1
1	15782	2422	0
1	15783	2422	1
1	15794	2423	0
1	15858	2434	1
1	15858	2434	0
1	15865	2435	1
1	15867	2435	0
1	15879	2437	1
1	15879	2437	0
1	15890	2439	1
1	15890	2439	0
1	15909	2442	1
1	15909	2442	0
1	15920	2444	1
1	15920	2444	0
1	15932	2446	1
1	15932	2446	0
1	15992	2458	1
1	15992	2458	0
1	15993	2458	1
1	16002	2459	2
1	16004	2459	1
1	16017	2460	0
1	16024	2461	1
1	16028	2461	0
1	16104	2472	1
1	16104	2472	0
1	16116	2473	1
1	16118	2473	0
1	16127	2474	1
1	16129	2474	0
1	16138	2475	1
1	16140	2475	0
1	16183	2483	1
1	16183	2483	0
1	16223	2489	1
1	16223	2489	0
1	16233	2490	1
1	16235	2490	0
1	16248	2493	1
1	16248	2493	0
1	16288	2498	1
1	16288	2498	0
1	16406	2518	1
1	16406	2518	0
1	16407	2518	1
1	16414	2519	2
1	16416	2519	1
1	16422	2520	0
1	16442	2523	1
1	16442	2523	0
1	16463	2526	1
1	16463	2526	0
1	16464	2526	1
1	16474	2527	0
1	16488	2529	1
1	16488	2529	0
1	16561	2546	1
1	16561	2546	0
1	16579	2548	1
1	16579	2548	0
1	16590	2549	1
1	16592	2549	0
1	16609	2551	1
1	16609	2551	0
1	16635	2556	1
1	16635	2556	0
1	16702	2572	1
1	16702	2572	0
1	16703	2572	1
1	16708	2573	2
1	16710	2573	1
1	16717	2574	0
1	16764	2588	1
1	16764	2588	0
1	16783	2591	1
1	16783	2591	0
1	16793	2592	1
1	16798	2592	0
1	16807	2593	1
1	16809	2593	0
1	16818	2594	1
1	16821	2594	0
1	16862	2600	1
1	16862	2600	0
1	16881	2604	1
1	16881	2604	0
1	16935	2614	1
1	16935	2614	0
1	17027	2632	1
1	17027	2632	0
1	17043	2635	1
1	17043	2635	0
1	17062	2642	1
1	17062	2642	0
1	17108	2650	1
1	17108	2650	0
1	17135	2656	1
1	17135	2656	0
1	17149	2658	1
1	17149	2658	0
1	17193	2675	1
1	17193	2675	0
1	17232	2682	1
1	17232	2682	0
1	17241	2684	1
1	17241	2684	0
1	17250	2686	1
1	17250	2686	0
1	17371	2706	1
1	17371	2706	0
1	17437	2722	1
1	17437	2722	0
1	17503	2733	1
1	17503	2733	0
1	17504	2733	1
1	17517	2734	0
1	17580	2743	1
1	17580	2743	0
1	17588	2744	1
1	17590	2744	0
1	17618	2748	1
1	17618	2748	0
1	17619	2748	1
1	17628	2749	0
1	17635	2750	1
1	17639	2750	0
1	17644	2751	1
1	17646	2751	0
1	17678	2756	1
1	17678	2756	0
1	17725	2762	1
1	17725	2762	0
1	17757	2766	1
1	17757	2766	0
1	17774	2768	1
1	17774	2768	0
1	17898	2785	1
1	17898	2785	0
1	17951	2796	1
1	17951	2796	0
1	18033	2808	1
1	18033	2808	0
1	18153	2827	1
1	18153	2827	0
1	18174	2830	1
1	18174	2830	0
1	18191	2832	1
1	18191	2832	0
1	18198	2833	1
1	18201	2833	0
1	18228	2837	1
1	18228	2837	0
1	18233	2838	1
1	18236	2838	0
1	18260	2843	1
1	18260	2843	0
1	18265	2844	1
1	18270	2844	0
1	18292	2847	1
1	18292	2847	0
1	18311	2849	1
1	18311	2849	0
1	18358	2857	1
1	18358	2857	0
1	18373	2860	1
1	18373	2860	0
1	18420	2866	1
1	18420	2866	0
1	18465	2874	1
1	18465	2874	0
1	18488	2877	1
1	18488	2877	0
1	18509	2881	1
1	18509	2881	0
1	18510	2881	1
1	18525	2882	0
1	18534	2883	1
1	18543	2884	2
1	18561	2886	1
1	18572	2887	0
1	18605	2891	1
1	18605	2891	0
1	18606	2891	1
1	18618	2892	0
1	18635	2894	1
1	18635	2894	0
1	18693	2902	1