version 3
run Experimentos-177-20260508-20:05:44-28720
attr configname Experimentos
attr datetime 20260508-20:05:44
attr datetimef 20260508-200544
attr experiment Experimentos
attr inifile TwoQueues.ini
attr iterationvars "$p=0.6, $q=0.2, $Y=30, $m=2"
attr iterationvarsd p=0.6/q=0.2/Y=30/m=2
attr iterationvarsf p=0.6,q=0.2,Y=30,m=2-
attr measurement "$p=0.6, $q=0.2, $Y=30, $m=2"
attr network TwoQueues
attr processid 28720
attr repetition 17
attr replication #17
attr resultdir results
attr runnumber 177
attr seedset 177
itervar Y 30
itervar m 2
itervar p 0.6
itervar q 0.2
config description "Barrido completo de parámetros Proyecto 12"
config **.source1.p 0.6
config **.source1.q 0.2
config **.source2.p 0.6
config **.source2.q 0.2
config **.serverWithMaintenance.Y 30
config **.serverWithMaintenance.m 2
config network TwoQueues
config cpu-time-limit 5000s
config sim-time-limit 5000s
config warmup-period 400s
config repeat 20
config output-scalar-file results/Experimentos-p=0.6,q=0.2,Y=30,m=2--#17.sca
config output-vector-file results/Experimentos-p=0.6,q=0.2,Y=30,m=2--#17.vec
config **.vector-recording true

vector 0 TwoQueues.serverWithMaintenance residenceTime2:vector ETV
attr recordingmode vector
attr source delay2
attr title "Residence Time Class 2"
vector 1 TwoQueues.queue2 queueLengthStats:vector ETV
attr recordingmode vector
attr source qlen
attr title "Average Queue Length"
vector 2 TwoQueues.queue1 queueLengthStats:vector ETV
attr recordingmode vector
attr source qlen
attr title "Average Queue Length"
vector 3 TwoQueues.server residenceTime1:vector ETV
attr recordingmode vector
attr source delay1
attr title "Residence Time Class 1"
vector 4 TwoQueues.server throughputStats1:vector ETV
attr recordingmode vector
attr source throughput1
attr title "Throughput Class 1"
0	2472	402	1
0	2490	404	1
0	2530	410	1
0	2542	411	2
0	2583	417	1
0	2605	420	3
0	2704	434	1
0	2791	448	1
0	2813	453	1
0	2823	454	1
0	2837	457	1
0	2846	458	2
0	2878	463	1
0	2899	465	1
0	2916	467	1
0	2953	471	1
0	2996	477	1
0	3008	478	1
0	3074	490	1
0	3106	494	1
0	3163	505	1
0	3177	506	1
0	3203	509	1
0	3339	528	1
0	3363	534	1
0	3376	535	1
0	3389	536	1
0	3400	537	1
0	3475	547	1
0	3598	569	1
0	3628	576	1
0	3636	577	2
0	3650	578	2
0	3662	579	3
0	3672	580	3
0	3768	600	1
0	3784	604	1
0	3800	608	1
0	3829	613	1
0	3843	616	1
0	3882	621	1
0	3895	622	1
0	3913	624	1
0	3942	627	1
0	3961	629	1
0	3971	630	2
0	3982	631	1
0	4014	635	1
0	4039	639	1
0	4055	641	1
0	4069	643	1
0	4079	644	1
0	4109	649	1
0	4195	662	1
0	4243	670	1
0	4266	674	1
0	4307	684	1
0	4355	692	1
0	4377	697	1
0	4430	705	1
0	4465	712	1
0	4476	715	1
0	4548	727	1
0	4557	728	2
0	4576	731	1
0	4609	737	1
0	4683	747	1
0	4695	749	1
0	4702	750	1
0	4757	760	1
0	4778	765	1
0	4784	766	2
0	4840	778	1
0	4890	789	1
0	4901	791	1
0	4915	793	1
0	4929	795	1
0	4958	798	1
0	4969	799	1
0	5124	824	1
0	5136	825	1
0	5169	829	1
0	5180	830	2
0	5345	864	1
0	5374	867	1
0	5391	869	1
0	5444	876	1
0	5459	877	2
0	5544	889	1
0	5564	891	1
0	5576	892	2
0	5586	893	2
0	5664	904	1
0	5690	908	1
0	5727	913	1
0	5752	916	2
0	5768	920	1
0	5779	921	1
0	5791	922	1
0	5810	925	1
0	5877	937	1
0	5914	943	1
0	5921	944	1
0	5977	958	1
0	5995	960	1
0	6007	961	1
0	6044	968	1
0	6056	969	2
0	6066	970	2
0	6098	975	1
0	6111	977	1
0	6154	982	1
0	6184	986	1
0	6212	989	1
0	6230	991	1
0	6284	1002	1
0	6303	1004	1
0	6339	1012	1
0	6378	1020	1
0	6403	1023	1
0	6470	1032	1
0	6499	1036	1
0	6551	1044	1
0	6561	1045	1
0	6572	1047	1
0	6584	1050	2
0	6600	1052	1
0	6628	1055	1
0	6638	1056	2
0	6650	1057	1
0	6715	1070	1
0	6726	1071	2
0	6749	1075	1
0	6765	1078	1
0	6889	1100	1
0	6905	1102	1
0	6984	1115	1
0	7017	1123	1
0	7038	1126	1
0	7063	1131	1
0	7093	1137	1
0	7100	1138	1
0	7116	1141	1
0	7166	1156	1
0	7194	1161	1
0	7206	1162	1
0	7372	1194	1
0	7446	1204	1
0	7485	1210	1
0	7491	1211	2
0	7498	1212	1
0	7524	1215	1
0	7598	1226	1
0	7664	1234	1
0	7681	1236	1
0	7705	1239	1
0	7752	1246	1
0	7774	1252	1
0	7781	1253	1
0	7797	1255	1
0	7837	1260	1
0	7879	1266	1
0	7893	1267	1
0	7960	1276	1
0	8038	1289	1
0	8128	1302	1
0	8244	1321	1
0	8309	1332	1
0	8319	1333	1
0	8338	1335	1
0	8350	1336	1
0	8367	1338	1
0	8373	1339	2
0	8397	1345	1
0	8492	1361	1
0	8499	1362	1
0	8506	1363	1
0	8521	1365	1
0	8527	1366	2
0	8534	1367	1
0	8653	1387	1
0	8702	1393	1
0	8779	1404	1
0	8833	1411	1
0	8862	1415	1
0	8885	1418	3
0	8894	1419	3
0	8925	1423	1
0	8934	1424	2
0	8952	1427	1
0	9013	1436	1
0	9053	1446	1
0	9093	1452	1
0	9111	1454	1
0	9147	1459	1
0	9172	1462	1
0	9333	1496	1
0	9362	1499	1
0	9395	1503	1
0	9464	1513	1
0	9525	1521	1
0	9556	1524	1
0	9568	1525	1
0	9634	1534	1
0	9667	1538	1
0	9685	1540	1
0	9703	1542	1
0	9751	1548	1
0	9763	1549	1
0	9773	1550	2
0	9838	1560	1
0	9881	1570	1
0	9890	1572	1
0	9927	1578	1
0	9993	1590	1
0	10055	1599	1
0	10118	1613	1
0	10138	1617	1
0	10193	1630	1
0	10199	1631	2
0	10229	1637	1
0	10242	1638	1
0	10260	1640	1
0	10293	1644	1
0	10313	1647	1
0	10380	1660	1
0	10405	1663	1
0	10415	1664	1
0	10433	1666	1
0	10505	1680	1
0	10532	1684	1
0	10609	1696	1
0	10633	1699	1
0	10666	1706	1
0	10686	1709	1
0	10692	1710	2
0	10714	1716	1
0	10727	1720	1
0	10736	1722	1
0	10765	1728	1
0	10779	1729	1
0	10797	1731	1
0	10815	1734	1
0	10827	1735	1
0	10866	1740	1
0	10933	1749	1
0	10945	1750	1
0	10955	1751	1
0	10976	1754	1
0	11008	1758	1
0	11079	1773	1
0	11094	1778	1
0	11101	1779	1
0	11111	1780	1
0	11120	1781	1
0	11146	1785	1
0	11164	1788	1
0	11174	1789	1
0	11194	1792	1
0	11374	1823	1
0	11441	1836	1
0	11447	1837	2
0	11463	1842	1
0	11472	1843	2
0	11484	1844	1
0	11511	1848	1
0	11540	1852	1
0	11559	1854	1
0	11586	1857	1
0	11758	1898	1
0	11769	1899	2
0	11787	1901	1
0	11805	1905	1
0	11816	1906	1
0	11827	1907	2
0	11849	1910	4
0	11860	1911	5
0	11871	1912	5
0	11913	1918	1
0	11936	1923	1
0	11943	1924	2
0	11949	1925	2
0	11956	1926	1
0	11965	1928	1
0	11974	1930	1
0	11995	1934	1
0	12100	1951	1
0	12139	1956	1
0	12159	1960	1
0	12168	1962	1
0	12199	1969	1
0	12228	1976	1
0	12258	1982	1
0	12302	1991	1
0	12345	1997	1
0	12365	2000	1
0	12372	2001	2
0	12378	2002	2
0	12389	2005	1
0	12396	2006	1
0	12412	2008	1
0	12422	2009	1
0	12438	2011	1
0	12474	2020	1
0	12525	2027	1
0	12549	2032	1
0	12588	2038	1
0	12599	2039	1
0	12608	2040	2
0	12638	2044	1
0	12674	2052	1
0	12685	2053	1
0	12739	2060	1
0	12750	2061	2
0	12760	2062	2
0	12779	2064	1
0	12790	2065	1
0	12809	2067	1
0	12819	2068	2
0	12854	2072	1
0	12916	2080	1
0	13059	2100	1
0	13097	2106	1
0	13145	2114	1
0	13169	2116	1
0	13180	2117	2
0	13192	2118	1
0	13204	2119	2
0	13240	2124	1
0	13285	2131	1
0	13326	2137	1
0	13343	2139	1
0	13396	2146	1
0	13407	2147	1
0	13469	2156	1
0	13499	2160	1
0	13518	2162	1
0	13530	2163	1
0	13563	2169	1
0	13596	2175	1
0	13633	2182	1
0	13649	2184	1
0	13677	2189	1
0	13695	2191	1
0	13711	2195	1
0	13730	2202	1
0	13741	2204	1
0	13753	2206	1
0	13777	2213	1
0	13830	2222	1
0	13880	2228	1
0	13890	2229	2
0	13902	2230	1
0	13939	2235	1
0	14050	2257	1
0	14060	2258	1
0	14076	2260	1
0	14093	2263	1
0	14099	2264	2
0	14119	2269	1
0	14181	2278	1
0	14205	2281	1
0	14252	2290	1
0	14276	2293	1
0	14339	2301	1
0	14367	2304	2
0	14377	2305	2
0	14401	2308	1
0	14417	2310	1
0	14437	2313	1
0	14449	2314	2
0	14521	2326	1
0	14538	2329	1
0	14550	2330	1
0	14563	2331	1
0	14610	2339	1
0	14628	2343	1
0	14667	2351	1
0	14686	2353	1
0	14699	2354	1
0	14709	2355	2
0	14738	2358	1
0	14750	2359	1
0	14760	2360	2
0	14771	2361	1
0	14794	2366	1
0	14852	2374	1
0	14887	2379	1
0	14913	2383	1
0	14945	2389	1
0	14968	2393	1
0	14979	2395	1
0	14993	2396	1
0	15028	2402	1
0	15049	2405	1
0	15081	2409	1
0	15089	2410	1
0	15099	2411	2
0	15116	2414	1
0	15204	2426	1
0	15214	2427	2
0	15270	2436	1
0	15425	2465	1
0	15458	2470	1
0	15465	2471	1
0	15472	2472	1
0	15539	2482	1
0	15568	2487	1
0	15574	2488	2
0	15617	2496	1
0	15634	2497	1
0	15647	2498	2
0	15661	2499	2
0	15692	2503	1
0	15721	2506	1
0	15746	2509	1
0	15893	2530	1
0	15904	2531	2
0	15914	2532	2
0	15942	2535	1
0	15982	2540	1
0	15993	2541	1
0	16073	2558	1
0	16105	2562	1
0	16179	2573	1
0	16192	2576	3
0	16198	2577	2
0	16208	2578	1
0	16228	2582	1
0	16244	2584	1
0	16261	2586	1
0	16278	2588	1
0	16304	2591	1
0	16338	2595	1
0	16557	2628	1
0	16580	2633	1
0	16616	2639	1
0	16667	2646	1
0	16677	2647	2
0	16710	2651	1
0	16727	2653	1
0	16840	2672	1
0	16851	2673	1
0	16870	2675	1
0	16902	2679	1
0	16912	2680	2
0	16921	2681	3
0	16928	2682	1
0	16935	2683	1
0	16953	2685	1
0	16975	2688	1
0	16993	2691	1
0	17003	2692	1
0	17018	2697	1
0	17034	2699	1
0	17061	2702	2
0	17087	2706	1
0	17156	2718	1
0	17163	2719	1
0	17287	2741	1
0	17294	2742	1
0	17303	2744	1
0	17347	2752	1
0	17408	2763	1
0	17420	2765	1
0	17432	2767	1
0	17451	2769	1
0	17460	2770	2
0	17470	2771	1
0	17510	2780	1
0	17570	2788	1
0	17627	2800	1
0	17672	2806	1
0	17683	2807	1
0	17708	2810	1
0	17744	2817	1
0	17757	2821	1
0	17811	2830	1
0	17817	2831	2
0	17828	2834	1
0	17863	2839	1
0	17880	2841	1
0	17896	2843	1
0	17987	2860	1
0	18081	2878	1
0	18180	2892	1
0	18245	2902	1
0	18255	2904	1
0	18261	2905	2
0	18268	2906	1
0	18275	2907	1
0	18291	2910	1
0	18301	2911	1
0	18319	2914	1
0	18397	2933	1
0	18426	2938	1
0	18452	2941	1
0	18504	2949	1
0	18511	2950	1
0	18639	2969	1
0	18647	2970	1
0	18653	2971	2
0	18664	2973	1
0	18683	2975	1
0	18741	2986	1
0	18798	2993	1
0	18891	3007	1
0	18925	3011	1
0	18935	3012	2
0	19004	3025	1
0	19016	3026	2
0	19107	3040	1
0	19152	3046	1
0	19176	3050	1
0	19226	3060	1
0	19238	3063	1
0	19254	3065	1
0	19307	3073	1
0	19317	3074	2
0	19327	3075	1
0	19394	3085	1
0	19406	3087	1
0	19427	3090	1
0	19434	3091	1
0	19467	3096	1
0	19478	3097	1
0	19495	3099	1
0	19534	3106	1
0	19557	3115	1
0	19573	3117	1
0	19617	3125	1
0	19652	3129	1
0	19664	3130	1
0	19709	3136	1
0	19727	3138	1
0	19739	3139	2
0	19763	3142	1
0	19780	3144	1
0	19842	3154	1
0	19857	3156	1
0	19876	3158	1
0	19946	3168	1
0	19977	3173	1
0	20008	3177	1
0	20022	3179	1
0	20051	3184	1
0	20058	3185	1
0	20065	3186	1
0	20100	3191	1
0	20157	3201	1
0	20219	3209	1
0	20238	3211	1
0	20326	3226	1
0	20338	3227	1
0	20356	3229	1
0	20370	3230	2
0	20382	3231	2
0	20393	3232	2
0	20403	3233	2
0	20414	3234	1
0	20430	3236	1
0	20445	3238	1
0	20451	3239	2
0	20459	3240	1
0	20468	3241	2
0	20484	3243	1
0	20667	3273	1
0	20684	3275	1
0	20856	3305	1
0	20868	3306	1
0	20878	3307	2
0	20884	3308	2
0	20916	3311	1
0	20933	3313	1
0	21005	3323	1
0	21055	3330	1
0	21067	3331	2
0	21077	3332	2
0	21088	3333	1
0	21097	3334	1
0	21104	3335	1
0	21116	3337	1
0	21125	3338	2
0	21203	3352	1
0	21226	3357	1
0	21301	3367	1
0	21310	3368	2
0	21347	3375	1
0	21411	3386	1
0	21445	3393	1
0	21459	3395	1
0	21481	3399	1
0	21493	3400	2
0	21526	3404	1
0	21557	3409	1
0	21564	3410	1
0	21583	3413	1
0	21617	3419	1
0	21635	3422	1
0	21647	3423	1
0	21668	3425	1
0	21687	3427	1
0	21826	3446	1
0	21837	3447	2
0	21847	3448	2
0	21955	3469	1
0	21965	3470	1
0	22012	3481	1
0	22026	3483	1
0	22063	3488	1
0	22079	3489	1
0	22091	3490	1
0	22102	3491	1
0	22114	3492	1
0	22181	3500	1
0	22193	3501	1
0	22222	3505	1
0	22424	3533	1
0	22435	3534	1
0	22453	3536	1
0	22465	3537	1
0	22496	3541	1
0	22507	3542	1
0	22537	3546	1
0	22559	3550	1
0	22570	3551	1
0	22649	3565	1
0	22687	3571	1
0	22700	3572	1
0	22732	3576	1
0	22765	3580	1
0	22860	3594	1
0	22870	3595	1
0	22883	3598	1
0	22902	3601	1
0	22922	3604	3
0	22931	3605	2
0	22956	3609	1
0	22985	3612	1
0	23039	3619	1
0	23074	3624	1
0	23102	3633	1
0	23160	3642	1
0	23249	3659	1
0	23272	3664	1
0	23333	3675	1
0	23350	3678	1
0	23362	3679	1
0	23410	3687	1
0	23457	3698	1
0	23469	3699	2
0	23479	3700	2
0	23490	3701	3
0	23500	3702	1
0	23548	3716	1
0	23615	3727	1
0	23636	3730	1
0	23656	3733	1
0	23674	3735	1
0	23697	3738	1
0	23715	3742	1
0	23764	3751	1
0	23787	3754	1
0	23837	3761	1
0	23950	3780	1
0	23977	3783	1
0	23996	3785	1
0	24014	3787	1
0	24061	3797	1
0	24096	3802	1
0	24103	3803	1
0	24115	3805	1
0	24126	3806	2
0	24150	3809	1
0	24178	3813	1
0	24188	3814	1
0	24198	3815	1
0	24204	3816	2
0	24218	3818	1
0	24228	3819	1
0	24242	3821	1
0	24258	3823	1
0	24293	3833	1
0	24380	3845	1
0	24389	3846	2
0	24396	3847	1
0	24405	3849	1
0	24446	3856	1
0	24456	3857	1
0	24464	3858	1
0	24470	3859	2
0	24479	3861	1
0	24486	3862	1
0	24495	3864	1
0	24562	3875	1
0	24574	3878	3
0	24648	3889	1
0	24697	3896	1
0	24742	3902	1
0	24855	3921	1
0	24908	3928	1
0	24944	3933	1
0	24962	3935	1
0	24973	3936	2
0	25007	3940	1
0	25038	3944	1
0	25118	3959	1
0	25135	3961	1
0	25203	3971	1
0	25246	3979	1
0	25255	3981	1
0	25271	3984	1
0	25317	3992	1
0	25337	3995	1
0	25349	3996	1
0	25425	4005	1
0	25442	4007	1
0	25488	4013	1
0	25501	4014	1
0	25547	4020	1
0	25564	4022	1
0	25575	4023	1
0	25586	4024	1
0	25614	4027	1
0	25667	4036	1
0	25689	4039	3
0	25705	4042	1
0	25715	4043	1
0	25737	4046	1
0	25761	4048	1
0	25773	4049	2
0	25828	4056	1
0	25887	4064	1
0	25897	4065	2
0	25980	4075	1
0	25991	4076	1
0	26042	4083	1
0	26086	4089	1
0	26232	4110	1
0	26241	4111	2
0	26262	4114	1
0	26296	4120	1
0	26338	4126	1
0	26373	4132	1
0	26384	4135	1
0	26395	4137	1
0	26430	4141	1
0	26492	4150	1
0	26550	4158	1
0	26557	4159	1
0	26567	4160	1
0	26581	4161	1
0	26598	4163	1
0	26620	4167	1
0	26661	4172	1
0	26680	4175	2
0	26704	4178	1
0	26737	4182	1
0	26748	4183	1
0	26764	4187	1
0	26813	4198	1
0	26829	4202	1
0	26921	4220	1
0	26927	4221	2
0	26939	4223	1
0	26986	4231	1
0	27042	4238	1
0	27053	4239	1
0	27065	4240	1
0	27077	4241	1
0	27107	4245	1
0	27212	4266	1
0	27243	4271	1
0	27249	4272	2
0	27263	4274	1
0	27313	4283	1
0	27327	4286	1
0	27367	4292	1
0	27385	4295	1
0	27486	4317	1
0	27564	4331	1
0	27589	4334	1
0	27606	4336	1
0	27636	4340	1
0	27646	4341	2
0	27675	4344	1
0	27713	4349	1
0	27760	4355	1
0	27861	4375	1
0	27869	4376	1
0	27875	4377	2
0	27882	4378	1
0	27939	4388	1
0	27963	4391	1
0	28021	4398	1
0	28054	4402	1
0	28202	4426	1
0	28277	4438	1
0	28322	4446	1
0	28333	4447	1
0	28481	4469	1
0	28491	4470	1
0	28509	4474	1
0	28542	4478	1
0	28566	4481	1
0	28603	4486	1
0	28626	4489	1
0	28638	4491	1
0	28670	4496	1
0	28711	4504	1
0	28740	4508	1
0	28758	4511	1
0	28845	4527	1
0	28860	4531	1
0	28885	4536	1
0	28916	4542	1
0	28976	4551	1
0	29027	4563	1
0	29037	4564	2
0	29065	4570	1
0	29136	4582	1
0	29151	4587	1
0	29158	4588	1
0	29168	4589	1
0	29269	4606	1
0	29329	4617	1
0	29345	4619	1
0	29360	4623	1
0	29398	4633	1
0	29438	4643	1
0	29470	4648	1
0	29493	4650	1
0	29569	4660	1
0	29579	4661	2
0	29705	4683	1
0	29755	4691	1
0	29765	4692	2
0	29778	4693	1
0	29789	4694	1
0	29800	4695	1
0	29811	4696	1
0	29832	4699	1
0	29846	4702	1
0	29919	4715	1
0	29929	4716	1
0	29941	4719	2
0	29954	4723	1
0	29972	4726	1
0	29984	4728	1
0	29998	4730	1
0	30043	4741	1
0	30072	4746	1
0	30093	4750	1
0	30134	4759	1
0	30143	4760	2
0	30170	4764	1
0	30187	4766	1
0	30201	4769	1
0	30214	4770	1
0	30226	4771	1
0	30246	4773	1
0	30256	4774	2
0	30291	4779	1
0	30312	4783	1
0	30324	4784	1
0	30335	4785	2
0	30359	4788	1
0	30403	4794	1
0	30437	4801	1
0	30465	4805	1
0	30508	4811	1
0	30590	4822	1
0	30620	4825	1
0	30638	4827	1
0	30779	4847	1
0	30795	4850	2
0	30801	4851	2
0	30883	4863	1
0	30906	4866	1
0	30952	4873	1
0	31006	4880	1
0	31056	4887	1
0	31107	4894	1
0	31142	4903	1
0	31152	4904	1
0	31163	4906	1
0	31189	4910	1
0	31198	4912	1
0	31210	4914	1
0	31252	4923	1
0	31264	4925	1
0	31316	4937	1
0	31349	4941	1
0	31374	4945	1
0	31400	4949	1
0	31425	4953	1
0	31506	4966	1
0	31515	4968	1
0	31533	4972	1
0	31586	4981	1
0	31608	4987	1
0	31662	4999	1
1	2465	401	1
1	2465	401	0
1	2482	403	1
1	2482	403	0
1	2521	409	1
1	2521	409	0
1	2522	409	1
1	2535	410	0
1	2577	416	1
1	2577	416	0
1	2584	417	1
1	2599	419	0
1	2697	433	1
1	2697	433	0
1	2785	447	1
1	2785	447	0
1	2805	452	1
1	2805	452	0
1	2815	453	1
1	2817	453	0
1	2830	456	1
1	2830	456	0
1	2831	456	1
1	2840	457	0
1	2870	462	1
1	2870	462	0
1	2892	464	1
1	2892	464	0
1	2909	466	1
1	2909	466	0
1	2945	470	1
1	2945	470	0
1	2989	476	1
1	2989	476	0
1	2998	477	1
1	3001	477	0
1	3066	489	1
1	3066	489	0
1	3098	493	1
1	3098	493	0
1	3154	504	1
1	3154	504	0
1	3165	505	1
1	3170	505	0
1	3193	508	1
1	3193	508	0
1	3332	527	1
1	3332	527	0
1	3359	533	1
1	3359	533	0
1	3364	534	1
1	3370	534	0
1	3377	535	1
1	3383	535	0
1	3390	536	1
1	3394	536	0
1	3468	546	1
1	3468	546	0
1	3592	568	1
1	3592	568	0
1	3623	575	1
1	3623	575	0
1	3624	575	1
1	3629	576	2
1	3630	576	3
1	3632	576	2
1	3637	577	3
1	3644	577	2
1	3656	578	1
1	3666	579	0
1	3762	599	1
1	3762	599	0
1	3780	603	1
1	3780	603	0
1	3793	607	1
1	3793	607	0
1	3821	612	1
1	3821	612	0
1	3839	615	1
1	3839	615	0
1	3874	620	1
1	3874	620	0
1	3884	621	1
1	3888	621	0
1	3906	623	1
1	3906	623	0
1	3932	626	1
1	3932	626	0
1	3953	628	1
1	3953	628	0
1	3954	628	1
1	3964	629	0
1	3973	630	1
1	3975	630	0
1	4007	634	1
1	4007	634	0
1	4033	638	1
1	4033	638	0
1	4048	640	1
1	4048	640	0
1	4063	642	1
1	4063	642	0
1	4071	643	1
1	4073	643	0
1	4103	648	1
1	4103	648	0
1	4189	661	1
1	4189	661	0
1	4236	669	1
1	4236	669	0
1	4260	673	1
1	4260	673	0
1	4300	683	1
1	4300	683	0
1	4349	691	1
1	4349	691	0
1	4371	696	1
1	4371	696	0
1	4422	704	1
1	4422	704	0
1	4459	711	1
1	4459	711	0
1	4472	714	1
1	4472	714	0
1	4539	726	1
1	4539	726	0
1	4540	726	1
1	4551	727	0
1	4569	730	1
1	4569	730	0
1	4602	736	1
1	4602	736	0
1	4676	746	1
1	4676	746	0
1	4691	748	1
1	4691	748	0
1	4696	749	1
1	4698	749	0
1	4753	759	1
1	4753	759	0
1	4771	764	1
1	4771	764	0
1	4772	764	1
1	4780	765	0
1	4834	777	1
1	4834	777	0
1	4886	788	1
1	4886	788	0
1	4895	790	1
1	4895	790	0
1	4909	792	1
1	4909	792	0
1	4923	794	1
1	4923	794	0
1	4950	797	1
1	4950	797	0
1	4960	798	1
1	4962	798	0
1	5114	823	1
1	5114	823	0
1	5126	824	1
1	5129	824	0
1	5161	828	1
1	5161	828	0
1	5162	828	1
1	5173	829	0
1	5341	863	1
1	5341	863	0
1	5365	866	1
1	5365	866	0
1	5384	868	1
1	5384	868	0
1	5435	875	1
1	5435	875	0
1	5436	875	1
1	5452	876	0
1	5536	888	1
1	5536	888	0
1	5554	890	1
1	5554	890	0
1	5555	890	1
1	5566	891	2
1	5569	891	1
1	5579	892	0
1	5655	903	1
1	5655	903	0
1	5684	907	1
1	5684	907	0
1	5719	912	1
1	5719	912	0
1	5737	914	1
1	5745	915	0
1	5764	919	1
1	5764	919	0
1	5769	920	1
1	5773	920	0
1	5780	921	1
1	5785	921	0
1	5804	924	1
1	5804	924	0
1	5873	936	1
1	5873	936	0
1	5908	942	1
1	5908	942	0
1	5915	943	1
1	5917	943	0
1	5970	957	1
1	5970	957	0
1	5988	959	1
1	5988	959	0
1	5997	960	1
1	6000	960	0
1	6035	967	1
1	6035	967	0
1	6036	967	1
1	6046	968	2
1	6049	968	1
1	6059	969	0
1	6094	974	1
1	6094	974	0
1	6103	976	1
1	6103	976	0
1	6144	981	1
1	6144	981	0
1	6177	985	1
1	6177	985	0
1	6203	988	1
1	6203	988	0
1	6222	990	1
1	6222	990	0
1	6278	1001	1
1	6278	1001	0
1	6295	1003	1
1	6295	1003	0
1	6333	1011	1
1	6333	1011	0
1	6374	1019	1
1	6374	1019	0
1	6396	1022	1
1	6396	1022	0
1	6463	1031	1
1	6463	1031	0
1	6489	1035	1
1	6489	1035	0
1	6545	1043	1
1	6545	1043	0
1	6552	1044	1
1	6555	1044	0
1	6568	1046	1
1	6568	1046	0
1	6576	1048	1
1	6580	1049	0
1	6592	1051	1
1	6592	1051	0
1	6620	1054	1
1	6620	1054	0
1	6621	1054	1
1	6631	1055	0
1	6640	1056	1
1	6643	1056	0
1	6708	1069	1
1	6708	1069	0
1	6709	1069	1
1	6720	1070	0
1	6745	1074	1
1	6745	1074	0
1	6759	1077	1
1	6759	1077	0
1	6885	1099	1
1	6885	1099	0
1	6897	1101	1
1	6897	1101	0
1	6980	1114	1
1	6980	1114	0
1	7011	1122	1
1	7011	1122	0
1	7032	1125	1
1	7032	1125	0
1	7056	1130	1
1	7056	1130	0
1	7089	1136	1
1	7089	1136	0
1	7094	1137	1
1	7096	1137	0
1	7110	1140	1
1	7110	1140	0
1	7160	1155	1
1	7160	1155	0
1	7185	1160	1
1	7185	1160	0
1	7196	1161	1
1	7199	1161	0
1	7368	1193	1
1	7368	1193	0
1	7437	1203	1
1	7437	1203	0
1	7478	1209	1
1	7478	1209	0
1	7479	1209	1
1	7487	1210	0
1	7492	1211	1
1	7494	1211	0
1	7517	1214	1
1	7517	1214	0
1	7591	1225	1
1	7591	1225	0
1	7655	1233	1
1	7655	1233	0
1	7674	1235	1
1	7674	1235	0
1	7698	1238	1
1	7698	1238	0
1	7746	1245	1
1	7746	1245	0
1	7770	1251	1
1	7770	1251	0
1	7775	1252	1
1	7777	1252	0
1	7786	1254	1
1	7786	1254	0
1	7830	1259	1
1	7830	1259	0
1	7872	1265	1
1	7872	1265	0
1	7881	1266	1
1	7886	1266	0
1	7953	1275	1
1	7953	1275	0
1	8031	1288	1
1	8031	1288	0
1	8120	1301	1
1	8120	1301	0
1	8238	1320	1
1	8238	1320	0
1	8305	1331	1
1	8305	1331	0
1	8310	1332	1
1	8313	1332	0
1	8330	1334	1
1	8330	1334	0
1	8340	1335	1
1	8343	1335	0
1	8360	1337	1
1	8360	1337	0
1	8361	1337	1
1	8369	1338	0
1	8390	1344	1
1	8390	1344	0
1	8486	1360	1
1	8486	1360	0
1	8493	1361	1
1	8495	1361	0
1	8500	1362	1
1	8502	1362	0
1	8514	1364	1
1	8514	1364	0
1	8515	1364	1
1	8523	1365	0
1	8528	1366	1
1	8530	1366	0
1	8646	1386	1
1	8646	1386	0
1	8686	1392	1
1	8686	1392	0
1	8772	1403	1
1	8772	1403	0
1	8825	1410	1
1	8825	1410	0
1	8855	1414	1
1	8855	1414	0
1	8864	1415	1
1	8870	1416	2
1	8877	1417	1
1	8888	1418	0
1	8917	1422	1
1	8917	1422	0
1	8918	1422	1
1	8928	1423	0
1	8944	1426	1
1	8944	1426	0
1	9007	1435	1
1	9007	1435	0
1	9049	1445	1
1	9049	1445	0
1	9080	1451	1
1	9080	1451	0
1	9104	1453	1
1	9104	1453	0
1	9140	1458	1
1	9140	1458	0
1	9165	1461	1
1	9165	1461	0
1	9329	1495	1
1	9329	1495	0
1	9354	1498	1
1	9354	1498	0
1	9387	1502	1
1	9387	1502	0
1	9457	1512	1
1	9457	1512	0
1	9517	1520	1
1	9517	1520	0
1	9543	1523	1
1	9543	1523	0
1	9558	1524	1
1	9561	1524	0
1	9626	1533	1
1	9626	1533	0
1	9660	1537	1
1	9660	1537	0
1	9678	1539	1
1	9678	1539	0
1	9696	1541	1
1	9696	1541	0
1	9742	1547	1
1	9742	1547	0
1	9753	1548	1
1	9754	1548	2
1	9756	1548	1
1	9766	1549	0
1	9831	1559	1
1	9831	1559	0
1	9875	1569	1
1	9875	1569	0
1	9886	1571	1
1	9886	1571	0
1	9921	1577	1
1	9921	1577	0
1	9985	1589	1
1	9985	1589	0
1	10047	1598	1
1	10047	1598	0
1	10112	1612	1
1	10112	1612	0
1	10131	1616	1
1	10131	1616	0
1	10188	1629	1
1	10188	1629	0
1	10189	1629	1
1	10195	1630	0
1	10222	1636	1
1	10222	1636	0
1	10231	1637	1
1	10235	1637	0
1	10252	1639	1
1	10252	1639	0
1	10285	1643	1
1	10285	1643	0
1	10307	1646	1
1	10307	1646	0
1	10373	1659	1
1	10373	1659	0
1	10397	1662	1
1	10397	1662	0
1	10407	1663	1
1	10409	1663	0
1	10426	1665	1
1	10426	1665	0
1	10496	1679	1
1	10496	1679	0
1	10526	1683	1
1	10526	1683	0
1	10603	1695	1
1	10603	1695	0
1	10625	1698	1
1	10625	1698	0
1	10660	1705	1
1	10660	1705	0
1	10679	1708	1
1	10679	1708	0
1	10680	1708	1
1	10688	1709	0
1	10710	1715	1
1	10710	1715	0
1	10723	1719	1
1	10723	1719	0
1	10732	1721	1
1	10732	1721	0
1	10758	1727	1
1	10758	1727	0
1	10767	1728	1
1	10772	1728	0
1	10789	1730	1
1	10789	1730	0
1	10811	1733	1
1	10811	1733	0
1	10816	1734	1
1	10821	1734	0
1	10857	1739	1
1	10857	1739	0
1	10926	1748	1
1	10926	1748	0
1	10935	1749	1
1	10938	1749	0
1	10947	1750	1
1	10949	1750	0
1	10970	1753	1
1	10970	1753	0
1	10999	1757	1
1	10999	1757	0
1	11075	1772	1
1	11075	1772	0
1	11090	1777	1
1	11090	1777	0
1	11095	1778	1
1	11097	1778	0
1	11102	1779	1
1	11105	1779	0
1	11112	1780	1
1	11116	1780	0
1	11139	1784	1
1	11139	1784	0
1	11160	1787	1
1	11160	1787	0
1	11165	1788	1
1	11168	1788	0
1	11187	1791	1
1	11187	1791	0
1	11370	1822	1
1	11370	1822	0
1	11436	1835	1
1	11436	1835	0
1	11437	1835	1
1	11443	1836	0
1	11458	1841	1
1	11458	1841	0
1	11459	1841	1
1	11466	1842	0
1	11473	1843	1
1	11478	1843	0
1	11503	1847	1
1	11503	1847	0
1	11531	1851	1
1	11531	1851	0
1	11551	1853	1
1	11551	1853	0
1	11576	1856	1
1	11576	1856	0
1	11750	1897	1
1	11750	1897	0
1	11751	1897	1
1	11762	1898	0
1	11779	1900	1
1	11779	1900	0
1	11799	1904	1
1	11799	1904	0
1	11807	1905	1
1	11808	1905	2
1	11810	1905	1
1	11817	1906	2
1	11818	1906	3
1	11821	1906	2
1	11828	1907	3
1	11841	1909	2
1	11853	1910	1
1	11864	1911	0
1	11906	1917	1
1	11906	1917	0
1	11931	1922	1
1	11931	1922	0
1	11932	1922	1
1	11937	1923	2
1	11939	1923	1
1	11945	1924	0
1	11950	1925	1
1	11952	1925	0
1	11961	1927	1
1	11961	1927	0
1	11970	1929	1
1	11970	1929	0
1	11986	1933	1
1	11986	1933	0
1	12091	1950	1
1	12091	1950	0
1	12132	1955	1
1	12132	1955	0
1	12155	1959	1
1	12155	1959	0
1	12164	1961	1
1	12164	1961	0
1	12193	1968	1
1	12193	1968	0
1	12222	1975	1
1	12222	1975	0
1	12254	1981	1
1	12254	1981	0
1	12294	1990	1
1	12294	1990	0
1	12338	1996	1
1	12338	1996	0
1	12360	1999	1
1	12360	1999	0
1	12361	1999	1
1	12366	2000	2
1	12368	2000	1
1	12374	2001	0
1	12385	2004	1
1	12385	2004	0
1	12390	2005	1
1	12392	2005	0
1	12404	2007	1
1	12404	2007	0
1	12414	2008	1
1	12416	2008	0
1	12431	2010	1
1	12431	2010	0
1	12468	2019	1
1	12468	2019	0
1	12518	2026	1
1	12518	2026	0
1	12545	2031	1
1	12545	2031	0
1	12581	2037	1
1	12581	2037	0
1	12590	2038	1
1	12591	2038	2
1	12593	2038	1
1	12602	2039	0
1	12632	2043	1
1	12632	2043	0
1	12670	2051	1
1	12670	2051	0
1	12675	2052	1
1	12679	2052	0
1	12730	2059	1
1	12730	2059	0
1	12731	2059	1
1	12741	2060	2
1	12743	2060	1
1	12753	2061	0
1	12772	2063	1
1	12772	2063	0
1	12781	2064	1
1	12783	2064	0
1	12800	2066	1
1	12800	2066	0
1	12801	2066	1
1	12812	2067	0
1	12847	2071	1
1	12847	2071	0
1	12909	2079	1
1	12909	2079	0
1	13052	2099	1
1	13052	2099	0
1	13091	2105	1
1	13091	2105	0
1	13137	2113	1
1	13137	2113	0
1	13156	2115	1
1	13156	2115	0
1	13157	2115	1
1	13173	2116	0
1	13182	2117	1
1	13183	2117	2
1	13185	2117	1
1	13197	2118	0
1	13233	2123	1
1	13233	2123	0
1	13277	2130	1
1	13277	2130	0
1	13320	2136	1
1	13320	2136	0
1	13337	2138	1
1	13337	2138	0
1	13386	2145	1
1	13386	2145	0
1	13398	2146	1
1	13400	2146	0
1	13462	2155	1
1	13462	2155	0
1	13492	2159	1
1	13492	2159	0
1	13510	2161	1
1	13510	2161	0
1	13520	2162	1
1	13523	2162	0
1	13553	2168	1
1	13553	2168	0
1	13592	2174	1
1	13592	2174	0
1	13626	2181	1
1	13626	2181	0
1	13643	2183	1
1	13643	2183	0
1	13668	2188	1
1	13668	2188	0
1	13687	2190	1
1	13687	2190	0
1	13707	2194	1
1	13707	2194	0
1	13726	2201	1
1	13726	2201	0
1	13735	2203	1
1	13735	2203	0
1	13749	2205	1
1	13749	2205	0
1	13771	2212	1
1	13771	2212	0
1	13826	2221	1
1	13826	2221	0
1	13871	2227	1
1	13871	2227	0
1	13872	2227	1
1	13883	2228	0
1	13892	2229	1
1	13895	2229	0
1	13932	2234	1
1	13932	2234	0
1	14046	2256	1
1	14046	2256	0
1	14051	2257	1
1	14054	2257	0
1	14070	2259	1
1	14070	2259	0
1	14088	2262	1
1	14088	2262	0
1	14089	2262	1
1	14095	2263	0
1	14115	2268	1
1	14115	2268	0
1	14171	2277	1
1	14171	2277	0
1	14198	2280	1
1	14198	2280	0
1	14242	2289	1
1	14242	2289	0
1	14269	2292	1
1	14269	2292	0
1	14332	2300	1
1	14332	2300	0
1	14351	2302	1
1	14359	2303	0
1	14360	2303	1
1	14370	2304	0
1	14393	2307	1
1	14393	2307	0
1	14411	2309	1
1	14411	2309	0
1	14429	2312	1
1	14429	2312	0
1	14430	2312	1
1	14442	2313	0
1	14515	2325	1
1	14515	2325	0
1	14531	2328	1
1	14531	2328	0
1	14540	2329	1
1	14543	2329	0
1	14552	2330	1
1	14556	2330	0
1	14606	2338	1
1	14606	2338	0
1	14624	2342	1
1	14624	2342	0
1	14658	2350	1
1	14658	2350	0
1	14678	2352	1
1	14678	2352	0
1	14688	2353	1
1	14689	2353	2
1	14692	2353	1
1	14702	2354	0
1	14731	2357	1
1	14731	2357	0
1	14740	2358	1
1	14741	2358	2
1	14743	2358	1
1	14753	2359	0
1	14762	2360	1
1	14764	2360	0
1	14790	2365	1
1	14790	2365	0
1	14843	2373	1
1	14843	2373	0
1	14880	2378	1
1	14880	2378	0
1	14907	2382	1
1	14907	2382	0
1	14939	2388	1
1	14939	2388	0
1	14964	2392	1
1	14964	2392	0
1	14973	2394	1
1	14973	2394	0
1	14981	2395	1
1	14986	2395	0
1	15022	2401	1
1	15022	2401	0
1	15041	2404	1
1	15041	2404	0
1	15075	2408	1
1	15075	2408	0
1	15082	2409	1
1	15083	2409	2
1	15085	2409	1
1	15093	2410	0
1	15112	2413	1
1	15112	2413	0
1	15195	2425	1
1	15195	2425	0
1	15196	2425	1
1	15207	2426	0
1	15264	2435	1
1	15264	2435	0
1	15417	2464	1
1	15417	2464	0
1	15454	2469	1
1	15454	2469	0
1	15459	2470	1
1	15461	2470	0
1	15466	2471	1
1	15468	2471	0
1	15532	2481	1
1	15532	2481	0
1	15561	2486	1
1	15561	2486	0
1	15562	2486	1
1	15570	2487	0
1	15611	2495	1
1	15611	2495	0
1	15619	2496	1
1	15620	2496	2
1	15627	2496	1
1	15636	2497	2
1	15640	2497	1
1	15654	2498	0
1	15684	2502	1
1	15684	2502	0
1	15709	2505	1
1	15709	2505	0
1	15739	2508	1
1	15739	2508	0
1	15883	2529	1
1	15883	2529	0
1	15884	2529	1
1	15895	2530	2
1	15897	2530	1
1	15907	2531	0
1	15934	2534	1
1	15934	2534	0
1	15973	2539	1
1	15973	2539	0
1	15984	2540	1
1	15986	2540	0
1	16066	2557	1
1	16066	2557	0
1	16098	2561	1
1	16098	2561	0
1	16173	2572	1
1	16173	2572	0
1	16180	2573	1
1	16187	2575	0
1	16188	2575	1
1	16194	2576	0
1	16199	2577	1
1	16202	2577	0
1	16224	2581	1
1	16224	2581	0
1	16237	2583	1
1	16237	2583	0
1	16252	2585	1
1	16252	2585	0
1	16271	2587	1
1	16271	2587	0
1	16297	2590	1
1	16297	2590	0
1	16331	2594	1
1	16331	2594	0
1	16549	2627	1
1	16549	2627	0
1	16574	2632	1
1	16574	2632	0
1	16608	2638	1
1	16608	2638	0
1	16656	2645	1
1	16656	2645	0
1	16657	2645	1
1	16670	2646	0
1	16702	2650	1
1	16702	2650	0
1	16720	2652	1
1	16720	2652	0
1	16831	2671	1
1	16831	2671	0
1	16842	2672	1
1	16844	2672	0
1	16863	2674	1
1	16863	2674	0
1	16892	2678	1
1	16892	2678	0
1	16893	2678	1
1	16894	2678	2
1	16905	2679	1
1	16915	2680	0
1	16922	2681	1
1	16924	2681	0
1	16929	2682	1
1	16931	2682	0
1	16944	2684	1
1	16944	2684	0
1	16969	2687	1
1	16969	2687	0
1	16986	2690	1
1	16986	2690	0
1	16995	2691	1
1	16997	2691	0
1	17014	2696	1
1	17014	2696	0
1	17026	2698	1
1	17026	2698	0
1	17045	2700	1
1	17053	2701	0
1	17083	2705	1
1	17083	2705	0
1	17150	2717	1
1	17150	2717	0
1	17157	2718	1
1	17159	2718	0
1	17281	2740	1
1	17281	2740	0
1	17288	2741	1
1	17290	2741	0
1	17299	2743	1
1	17299	2743	0
1	17340	2751	1
1	17340	2751	0
1	17400	2762	1
1	17400	2762	0
1	17416	2764	1
1	17416	2764	0
1	17425	2766	1
1	17425	2766	0
1	17442	2768	1
1	17442	2768	0
1	17443	2768	1
1	17454	2769	0
1	17461	2770	1
1	17464	2770	0
1	17506	2779	1
1	17506	2779	0
1	17563	2787	1
1	17563	2787	0
1	17621	2799	1
1	17621	2799	0
1	17662	2805	1
1	17662	2805	0
1	17674	2806	1
1	17676	2806	0
1	17701	2809	1
1	17701	2809	0
1	17740	2816	1
1	17740	2816	0
1	17753	2820	1
1	17753	2820	0
1	17804	2829	1
1	17804	2829	0
1	17805	2829	1
1	17813	2830	0
1	17824	2833	1
1	17824	2833	0
1	17853	2838	1
1	17853	2838	0
1	17873	2840	1
1	17873	2840	0
1	17890	2842	1
1	17890	2842	0
1	17979	2859	1
1	17979	2859	0
1	18075	2877	1
1	18075	2877	0
1	18171	2891	1
1	18171	2891	0
1	18239	2901	1
1	18239	2901	0
1	18250	2903	1
1	18250	2903	0
1	18251	2903	1
1	18257	2904	0
1	18262	2905	1
1	18264	2905	0
1	18269	2906	1
1	18271	2906	0
1	18285	2909	1
1	18285	2909	0
1	18292	2910	1
1	18295	2910	0
1	18310	2913	1
1	18310	2913	0
1	18393	2932	1
1	18393	2932	0
1	18419	2937	1
1	18419	2937	0
1	18444	2940	1
1	18444	2940	0
1	18498	2948	1
1	18498	2948	0
1	18505	2949	1
1	18507	2949	0
1	18633	2968	1
1	18633	2968	0
1	18640	2969	1
1	18641	2969	2
1	18643	2969	1
1	18649	2970	0
1	18658	2972	1
1	18658	2972	0
1	18676	2974	1
1	18676	2974	0
1	18734	2985	1
1	18734	2985	0
1	18791	2992	1
1	18791	2992	0
1	18884	3006	1
1	18884	3006	0
1	18917	3010	1
1	18917	3010	0
1	18918	3010	1
1	18928	3011	0
1	18996	3024	1
1	18996	3024	0
1	18997	3024	1
1	19009	3025	0
1	19097	3039	1
1	19097	3039	0
1	19145	3045	1
1	19145	3045	0
1	19172	3049	1
1	19172	3049	0
1	19220	3059	1
1	19220	3059	0
1	19234	3062	1
1	19234	3062	0
1	19246	3064	1
1	19246	3064	0
1	19298	3072	1
1	19298	3072	0
1	19299	3072	1
1	19310	3073	0
1	19319	3074	1
1	19321	3074	0
1	19386	3084	1
1	19386	3084	0
1	19402	3086	1