version 3
run Experimentos-534-20260514-09:21:22-6091
attr configname Experimentos
attr datetime 20260514-09:21:22
attr datetimef 20260514-092122
attr experiment Experimentos
attr inifile TwoQueues.ini
attr iterationvars "$p=0.7, $q=0.2, $Y=10, $m=4"
attr iterationvarsd p=0.7/q=0.2/Y=10/m=4
attr iterationvarsf p=0.7,q=0.2,Y=10,m=4-
attr measurement "$p=0.7, $q=0.2, $Y=10, $m=4"
attr network TwoQueues
attr processid 6091
attr repetition 14
attr replication #14
attr resultdir results
attr runnumber 534
attr seedset 534
itervar Y 10
itervar m 4
itervar p 0.7
itervar q 0.2
config description "Barrido completo de parámetros Proyecto 12"
config **.source1.p 0.7
config **.source1.q 0.2
config **.source2.p 0.6
config **.source2.q 0.2
config **.serverWithMaintenance.Y 10
config **.serverWithMaintenance.m 4
config network TwoQueues
config cpu-time-limit 5000s
config sim-time-limit 5000s
config warmup-period 400s
config repeat 20
config output-scalar-file results/Experimentos-p=0.7,q=0.2,Y=10,m=4--#14.sca
config output-vector-file results/Experimentos-p=0.7,q=0.2,Y=10,m=4--#14.vec
config **.vector-recording true

vector 0 TwoQueues.serverWithMaintenance residenceTime2:vector ETV
attr recordingmode vector
attr source delay2
attr title "Residence Time Class 2"
vector 1 TwoQueues.queue2 queueLengthStats:vector ETV
attr recordingmode vector
attr source qlen
attr title "Average Queue Length"
vector 2 TwoQueues.queue1 queueLengthStats:vector ETV
attr recordingmode vector
attr source qlen
attr title "Average Queue Length"
vector 3 TwoQueues.server residenceTime1:vector ETV
attr recordingmode vector
attr source delay1
attr title "Residence Time Class 1"
vector 4 TwoQueues.server throughputStats1:vector ETV
attr recordingmode vector
attr source throughput1
attr title "Throughput Class 1"
0	2181	413	1
0	2217	420	1
0	2231	423	1
0	2288	433	1
0	2300	434	1
0	2343	443	1
0	2353	444	1
0	2394	451	1
0	2418	454	1
0	2443	459	1
0	2469	464	2
0	2486	470	1
0	2503	476	1
0	2512	478	1
0	2533	481	1
0	2554	489	1
0	2587	498	1
0	2602	503	1
0	2615	507	1
0	2626	509	1
0	2650	514	3
0	2690	524	1
0	2701	527	1
0	2715	529	1
0	2730	534	1
0	2737	535	1
0	2777	541	1
0	2842	553	1
0	2871	557	1
0	2881	559	1
0	2905	564	6
0	2950	573	1
0	2960	574	2
0	2996	579	1
0	3019	583	1
0	3026	584	1
0	3047	587	1
0	3057	588	1
0	3075	591	1
0	3105	597	1
0	3143	602	3
0	3154	603	3
0	3165	604	4
0	3176	605	3
0	3188	607	1
0	3212	610	1
0	3228	612	1
0	3235	613	1
0	3253	617	1
0	3269	619	1
0	3289	624	5
0	3295	625	2
0	3348	639	1
0	3357	641	1
0	3364	642	1
0	3375	644	1
0	3418	656	1
0	3425	657	2
0	3431	658	2
0	3447	661	1
0	3484	666	3
0	3493	667	2
0	3504	669	1
0	3516	672	1
0	3522	673	2
0	3533	676	1
0	3552	683	1
0	3586	690	1
0	3598	692	1
0	3643	700	1
0	3662	705	3
0	3682	710	1
0	3727	718	1
0	3767	725	1
0	3800	732	1
0	3837	740	1
0	3850	743	1
0	3900	754	1
0	3924	761	1
0	3947	764	1
0	3966	769	5
0	4057	791	1
0	4070	793	1
0	4076	794	2
0	4104	798	1
0	4115	799	1
0	4127	800	1
0	4148	805	1
0	4174	808	1
0	4192	810	1
0	4229	815	6
0	4263	823	1
0	4292	828	1
0	4312	834	1
0	4319	835	1
0	4336	841	1
0	4343	842	1
0	4353	844	1
0	4362	845	2
0	4425	858	1
0	4451	863	1
0	4559	892	1
0	4579	896	1
0	4609	902	1
0	4618	904	1
0	4629	907	1
0	4701	927	1
0	4722	931	1
0	4731	933	1
0	4740	935	1
0	4763	941	1
0	4864	964	1
0	4894	968	1
0	4913	971	1
0	4944	976	1
0	4951	977	2
0	4957	978	2
0	4966	980	1
0	5023	990	1
0	5054	999	1
0	5112	1010	1
0	5121	1012	1
0	5142	1016	1
0	5153	1017	1
0	5198	1028	1
0	5230	1040	1
0	5239	1041	2
0	5303	1058	1
0	5368	1075	1
0	5374	1076	2
0	5392	1082	1
0	5401	1084	1
0	5414	1087	1
0	5426	1088	1
0	5453	1095	1
0	5462	1097	1
0	5484	1103	1
0	5505	1106	1
0	5512	1107	1
0	5519	1108	1
0	5539	1113	4
0	5550	1114	1
0	5563	1115	1
0	5588	1118	1
0	5614	1125	1
0	5650	1134	1
0	5677	1137	1
0	5689	1138	2
0	5698	1139	2
0	5705	1140	3
0	5729	1145	6
0	5741	1146	5
0	5752	1147	3
0	5765	1148	3
0	5775	1149	2
0	5860	1175	1
0	5880	1180	1
0	5892	1181	1
0	5925	1190	1
0	5953	1198	1
0	5978	1203	3
0	5984	1204	3
0	5998	1206	1
0	6030	1211	1
0	6048	1216	1
0	6093	1226	1
0	6107	1228	1
0	6132	1233	1
0	6139	1234	1
0	6158	1237	1
0	6189	1242	4
0	6198	1243	3
0	6212	1246	1
0	6224	1247	1
0	6369	1276	1
0	6404	1286	1
0	6419	1290	1
0	6436	1293	1
0	6454	1296	1
0	6469	1300	1
0	6503	1305	3
0	6519	1307	1
0	6576	1316	1
0	6582	1317	2
0	6591	1319	1
0	6607	1324	1
0	6616	1325	2
0	6625	1326	1
0	6632	1327	1
0	6675	1338	1
0	6701	1343	6
0	6710	1344	2
0	6733	1347	1
0	6742	1349	1
0	6774	1360	1
0	6790	1363	1
0	6799	1365	1
0	6840	1373	1
0	6878	1382	1
0	6885	1383	1
0	6948	1398	1
0	6969	1401	1
0	6976	1402	2
0	6986	1403	3
0	6997	1404	3
0	7020	1410	1
0	7060	1416	1
0	7076	1418	1
0	7089	1421	1
0	7135	1434	1
0	7167	1439	5
0	7176	1440	2
0	7208	1444	1
0	7226	1446	1
0	7248	1451	1
0	7262	1453	1
0	7287	1458	1
0	7301	1460	1
0	7316	1464	1
0	7330	1467	1
0	7365	1474	1
0	7388	1478	1
0	7419	1486	1
0	7435	1489	1
0	7446	1492	1
0	7483	1497	1
0	7529	1506	1
0	7644	1525	1
0	7669	1530	1
0	7692	1535	1
0	7710	1540	4
0	7717	1541	3
0	7726	1542	3
0	7734	1543	3
0	7754	1548	1
0	7772	1552	1
0	7856	1573	1
0	7889	1583	1
0	7900	1586	1
0	7927	1591	1
0	8025	1609	1
0	8098	1627	1
0	8164	1645	1
0	8174	1647	1
0	8180	1648	2
0	8206	1653	1
0	8216	1654	2
0	8238	1657	1
0	8248	1658	2
0	8267	1661	1
0	8295	1666	6
0	8304	1667	6
0	8311	1668	1
0	8419	1687	1
0	8426	1688	1
0	8453	1695	1
0	8480	1700	1
0	8500	1705	1
0	8517	1708	1
0	8523	1709	2
0	8542	1714	5
0	8573	1721	1
0	8582	1723	1
0	8597	1727	1
0	8618	1731	1
0	8646	1739	1
0	8678	1746	1
0	8717	1752	1
0	8772	1762	1
0	8793	1766	1
0	8816	1771	4
0	8827	1772	5
0	8838	1773	5
0	8888	1783	1
0	8907	1785	1
0	8919	1786	1
0	8936	1788	1
0	8995	1800	1
0	9074	1818	1
0	9081	1819	2
0	9104	1824	6
0	9117	1825	3
0	9127	1826	2
0	9137	1827	1
0	9218	1855	1
0	9255	1864	1
0	9279	1868	1
0	9287	1869	1
0	9297	1870	2
0	9377	1887	1
0	9428	1898	1
0	9485	1913	1
0	9494	1915	1
0	9507	1918	1
0	9525	1923	1
0	9647	1949	1
0	9675	1958	1
0	9682	1959	1
0	9702	1964	1
0	9713	1967	1
0	9752	1972	1
0	9834	1984	1
0	9840	1985	2
0	9853	1989	1
0	9860	1990	1
0	9867	1991	1
0	9875	1992	1
0	9881	1993	2
0	9888	1994	1
0	9895	1995	1
0	9940	2002	1
0	9972	2008	1
0	9983	2010	1
0	10006	2014	1
0	10078	2025	1
0	10092	2027	1
0	10110	2031	1
0	10206	2050	1
0	10226	2054	1
0	10247	2057	1
0	10273	2062	4
0	10283	2063	3
0	10295	2064	1
0	10319	2067	1
0	10330	2068	1
0	10348	2072	1
0	10367	2075	1
0	10374	2076	1
0	10407	2085	1
0	10458	2097	1
0	10502	2103	1
0	10533	2108	1
0	10551	2110	1
0	10569	2112	1
0	10601	2119	1
0	10608	2120	1
0	10661	2139	1
0	10701	2149	1
0	10742	2156	1
0	10767	2161	1
0	10791	2166	3
0	10820	2172	1
0	10840	2178	1
0	10849	2180	1
0	10857	2181	1
0	10863	2182	2
0	10873	2183	1
0	10896	2186	1
0	10903	2187	1
0	10912	2189	1
0	10928	2194	5
0	10962	2200	1
0	10979	2202	1
0	11032	2215	1
0	11096	2228	1
0	11119	2236	1
0	11152	2241	1
0	11165	2245	1
0	11175	2246	1
0	11195	2248	1
0	11227	2253	3
0	11280	2267	1
0	11291	2270	1
0	11314	2278	1
0	11328	2281	1
0	11342	2284	1
0	11383	2289	1
0	11405	2292	1
0	11413	2293	1
0	11423	2294	2
0	11465	2299	4
0	11474	2300	5
0	11484	2301	5
0	11495	2302	4
0	11503	2303	2
0	11530	2309	1
0	11552	2315	1
0	11575	2319	1
0	11612	2324	1
0	11627	2327	1
0	11653	2332	6
0	11659	2333	4
0	11695	2338	1
0	11724	2342	1
0	11772	2352	1
0	11793	2359	1
0	11823	2365	1
0	11846	2369	1
0	11867	2374	1
0	11873	2375	2
0	11910	2387	1
0	11944	2395	1
0	11960	2398	1
0	11971	2401	1
0	11978	2402	1
0	12004	2409	1
0	12014	2410	1
0	12056	2417	1
0	12104	2426	1
0	12137	2430	1
0	12168	2435	4
0	12177	2436	4
0	12213	2444	1
0	12229	2447	1
0	12238	2449	1
0	12257	2452	1
0	12279	2457	1
0	12322	2467	1
0	12368	2478	1
0	12386	2483	1
0	12403	2488	2
0	12414	2489	2
0	12424	2490	2
0	12442	2493	1
0	12449	2494	1
0	12491	2504	1
0	12501	2505	1
0	12593	2526	1
0	12603	2527	1
0	12618	2531	1
0	12637	2536	2
0	12662	2539	1
0	12762	2556	1
0	12812	2566	1
0	12867	2576	1
0	12877	2577	2
0	12883	2578	2
0	12950	2595	1
0	13015	2609	1
0	13040	2614	1
0	13062	2619	2
0	13071	2620	3
0	13108	2628	1
0	13140	2635	1
0	13160	2641	1
0	13170	2643	1
0	13176	2644	2
0	13199	2650	1
0	13209	2651	2
0	13234	2654	1
0	13262	2659	4
0	13273	2660	1
0	13290	2662	1
0	13304	2665	1
0	13311	2666	1
0	13336	2671	1
0	13369	2680	1
0	13407	2689	1
0	13418	2692	1
0	13469	2705	1
0	13490	2710	1
0	13512	2716	1
0	13533	2719	1
0	13588	2729	1
0	13622	2737	1
0	13674	2747	1
0	13708	2754	1
0	13728	2759	1
0	13808	2777	1
0	13839	2781	1
0	13869	2786	4
0	13879	2787	3
0	13920	2797	1
0	13935	2802	1
0	13942	2803	1
0	13951	2805	1
0	13965	2807	1
0	13982	2813	1
0	14016	2819	1
0	14026	2820	1
0	14055	2825	4
0	14084	2831	1
0	14128	2837	1
0	14174	2847	1
0	14186	2848	1
0	14198	2849	1
0	14207	2850	2
0	14258	2857	1
0	14268	2858	1
0	14278	2859	1
0	14305	2866	1
0	14389	2883	1
0	14396	2884	1
0	14403	2885	1
0	14426	2889	1
0	14473	2900	1
0	14481	2901	1
0	14490	2902	2
0	14528	2909	1
0	14565	2915	1
0	14596	2920	4
0	14608	2922	1
0	14635	2928	1
0	14642	2929	1
0	14677	2940	1
0	14709	2945	1
0	14719	2946	2
0	14768	2956	1
0	14800	2963	1
0	14844	2970	1
0	14871	2977	1
0	14885	2980	1
0	14903	2984	1
0	14923	2989	1
0	14934	2992	1
0	14951	2994	1
0	14962	2995	1
0	14994	3001	1
0	15015	3005	1
0	15039	3012	1
0	15055	3017	3
0	15066	3019	1
0	15093	3023	1
0	15100	3024	2
0	15110	3025	2
0	15118	3026	2
0	15127	3028	1
0	15166	3035	1
0	15198	3046	1
0	15230	3054	1
0	15251	3059	6
0	15257	3060	4
0	15279	3066	1
0	15345	3084	1
0	15386	3096	1
0	15413	3102	1
0	15456	3112	1
0	15469	3116	1
0	15513	3127	1
0	15545	3132	1
0	15580	3137	5
0	15589	3138	5
0	15657	3156	1
0	15682	3162	1
0	15699	3164	1
0	15719	3168	1
0	15726	3169	1
0	15741	3174	1
0	15766	3179	1
0	15773	3180	1
0	15790	3185	2
0	15799	3186	3
0	15822	3189	1
0	15882	3204	1
0	15895	3208	1
0	16062	3239	1
0	16073	3241	1
0	16155	3257	1
0	16164	3258	2
0	16175	3259	3
0	16198	3264	4
0	16216	3266	1
0	16227	3267	2
0	16236	3268	3
0	16243	3269	1
0	16320	3285	1
0	16330	3286	1
0	16375	3296	1
0	16386	3297	1
0	16408	3300	1
0	16458	3308	1
0	16464	3309	2
0	16482	3313	1
0	16516	3319	1
0	16551	3324	1
0	16569	3329	1
0	16601	3334	1
0	16634	3344	1
0	16644	3346	1
0	16650	3347	2
0	16683	3352	3
0	16722	3359	1
0	16734	3361	1
0	16794	3371	1
0	16805	3373	1
0	16833	3378	1
0	16840	3379	1
0	16847	3380	1
0	16856	3382	1
0	16883	3388	1
0	16899	3393	3
0	16930	3401	1
0	16939	3403	1
0	16957	3407	1
0	16977	3412	1
0	17014	3418	1
0	17029	3423	1
0	17051	3428	1
0	17068	3430	1
0	17089	3438	1
0	17107	3443	5
0	17131	3448	1
0	17138	3449	2
0	17144	3450	2
0	17160	3453	1
0	17178	3456	1
0	17188	3457	1
0	17204	3460	1
0	17215	3461	1
0	17240	3464	1
0	17271	3469	1
0	17304	3473	1
0	17338	3477	1
0	17348	3478	2
0	17358	3479	1
0	17367	3481	1
0	17404	3486	1
0	17427	3490	1
0	17439	3492	1
0	17448	3494	1
0	17480	3499	3
0	17491	3500	3
0	17503	3501	2
0	17534	3505	1
0	17546	3506	2
0	17576	3510	1
0	17688	3541	1
0	17712	3548	1
0	17719	3549	1
0	17757	3558	1
0	17793	3563	2
0	17817	3570	1
0	17824	3571	1
0	17831	3572	1
0	17861	3581	1
0	17900	3589	1
0	17911	3590	1
0	17922	3591	1
0	18009	3612	1
0	18028	3615	1
0	18060	3620	6
0	18102	3626	1
0	18214	3643	1
0	18242	3647	1
0	18251	3649	1
0	18266	3653	1
0	18306	3664	1
0	18337	3672	1
0	18422	3688	1
0	18434	3689	1
0	18476	3694	6
0	18486	3695	4
0	18496	3696	4
0	18506	3697	4
0	18547	3709	1
0	18570	3718	1
0	18602	3723	1
0	18613	3724	2
0	18624	3725	2
0	18646	3727	1
0	18688	3732	1
0	18699	3733	1
0	18710	3734	1
0	18775	3743	1
0	18786	3744	1
0	18804	3746	1
0	18836	3753	1
0	18857	3756	1
0	18888	3760	1
0	18943	3774	1
0	18963	3781	1
0	18981	3785	1
0	19005	3792	1
0	19023	3795	1
0	19076	3804	1
0	19086	3805	1
0	19147	3818	1
0	19195	3828	1
0	19224	3833	1
0	19293	3844	1
0	19374	3861	1
0	19385	3864	1
0	19403	3868	1
0	19413	3869	1
0	19426	3871	1
0	19442	3875	1
0	19456	3877	1
0	19463	3878	1
0	19481	3882	1
0	19510	3889	1
0	19533	3894	1
0	19553	3900	1
0	19564	3903	1
0	19579	3908	1
0	19681	3928	1
0	19702	3932	1
0	19713	3935	1
0	19723	3937	1
0	19729	3938	2
0	19745	3941	1
0	19761	3946	1
0	19785	3953	1
0	19801	3956	1
0	19817	3959	1
0	19847	3965	1
0	19859	3966	1
0	19868	3967	2
0	19879	3969	1
0	19910	3975	1
0	19921	3976	2
0	19959	3981	3
0	19985	3986	1
0	20015	3994	1
0	20061	4003	1
0	20095	4010	1
0	20168	4023	1
0	20178	4024	2
0	20222	4036	1
0	20251	4043	1
0	20258	4044	1
0	20285	4049	5
0	20291	4050	2
0	20307	4052	1
0	20359	4068	1
0	20375	4070	1
0	20483	4091	1
0	20497	4093	1
0	20513	4096	1
0	20550	4102	1
0	20602	4113	1
0	20631	4118	3
0	20642	4119	2
0	20662	4125	1
0	20682	4130	1
0	20698	4132	1
0	20722	4136	1
0	20733	4137	1
0	20791	4147	1
0	20802	4148	1
0	20819	4150	1
0	20870	4161	1
0	21011	4194	1
0	21018	4195	1
0	21046	4200	1
0	21106	4214	1
0	21114	4215	1
0	21120	4216	2
0	21134	4218	1
0	21145	4221	1
0	21159	4223	1
0	21176	4228	4
0	21185	4229	2
0	21201	4233	1
0	21207	4234	2
0	21242	4239	1
0	21259	4242	1
0	21269	4243	2
0	21318	4249	1
0	21347	4253	1
0	21357	4254	1
0	21393	4259	4
0	21403	4260	3
0	21412	4261	4
0	21453	4268	1
0	21467	4271	1
0	21481	4273	1
0	21490	4275	1
0	21517	4280	1
0	21606	4307	1
0	21630	4312	1
0	21654	4317	6
0	21663	4318	6
0	21669	4319	4
0	21685	4322	1
0	21694	4324	1
0	21725	4328	1
0	21761	4335	1
0	21768	4336	1
0	21809	4342	1
0	21832	4344	1
0	21869	4349	6
0	21880	4350	4
0	21911	4355	1
0	21939	4361	1
0	21953	4363	1
0	21980	4368	1
0	22036	4382	1
0	22046	4383	1
0	22082	4390	1
0	22102	4395	1
0	22119	4400	5
0	22125	4401	2
0	22152	4407	1
0	22191	4415	1
0	22226	4420	1
0	22259	4424	1
0	22296	4432	1
0	22322	4437	1
0	22331	4439	1
0	22340	4441	1
0	22386	4451	1
0	22396	4452	1
0	22427	4460	1
0	22445	4463	1
0	22452	4464	1
0	22465	4467	1
0	22538	4477	1
0	22619	4494	1
0	22640	4499	1
0	22680	4504	1
0	22709	4509	5
0	22718	4510	3
0	22773	4518	1
0	22790	4521	1
0	22813	4524	1
0	22824	4526	1
0	22845	4529	1
0	22871	4532	1
0	22893	4535	1
0	22909	4537	1
0	22941	4542	4
0	22947	4543	4
0	22962	4548	1
0	22978	4551	1
0	22994	4554	1
0	23027	4563	1
0	23073	4577	1
0	23084	4578	1
0	23096	4580	1
0	23111	4584	1
0	23161	4590	1
0	23178	4592	1
0	23219	4601	1
0	23230	4602	1
0	23283	4609	1
0	23354	4621	1
0	23375	4625	1
0	23421	4632	1
0	23438	4638	1
0	23452	4640	1
0	23516	4655	1
0	23532	4657	1
0	23565	4666	1
0	23590	4669	1
0	23646	4678	1
0	23656	4679	1
0	23665	4681	1
0	23698	4691	1
0	23716	4693	1
0	23730	4696	1
0	23768	4702	1
0	23795	4708	1
0	23821	4712	1
0	23831	4713	2
0	23840	4714	2
0	23873	4720	1
0	23893	4722	1
0	23904	4723	1
0	23915	4724	1
0	23938	4727	1
0	23956	4732	2
0	23983	4739	1
0	23994	4741	1
0	24025	4745	1
0	24032	4746	1
0	24044	4748	1
0	24092	4761	1
0	24103	4763	1
0	24135	4775	1
0	24149	4777	1
0	24170	4782	3
0	24203	4791	1
0	24210	4792	1
0	24228	4795	1
0	24238	4796	1
0	24295	4810	1
0	24313	4812	1
0	24368	4821	1
0	24388	4826	1
0	24419	4834	1
0	24445	4839	5
0	24461	4841	1
0	24482	4845	1
0	24489	4846	1
0	24510	4849	1
0	24519	4851	1
0	24544	4855	1
0	24591	4863	1
0	24611	4867	1
0	24636	4871	1
0	24660	4876	1
0	24725	4891	1
0	24765	4901	1
0	24788	4905	1
0	24795	4906	1
0	24802	4907	1
0	24911	4934	1
0	24940	4940	1
0	24980	4945	1
0	24995	4947	1
0	25045	4958	1
0	25052	4959	1
0	25074	4965	1
0	25087	4967	1
0	25144	4979	1
0	25159	4981	1
0	25179	4985	1
0	25195	4987	1
0	25207	4989	1
1	2177	412	1
1	2177	412	0
1	2211	419	1
1	2211	419	0
1	2227	422	1
1	2227	422	0
1	2282	432	1
1	2282	432	0
1	2290	433	1
1	2293	433	0
1	2337	442	1
1	2337	442	0
1	2345	443	1
1	2347	443	0
1	2386	450	1
1	2386	450	0
1	2412	453	1
1	2412	453	0
1	2439	458	1
1	2439	458	0
1	2459	462	1
1	2465	463	0
1	2482	469	1
1	2482	469	0
1	2499	475	1
1	2499	475	0
1	2508	477	1
1	2508	477	0
1	2527	480	1
1	2527	480	0
1	2550	488	1
1	2550	488	0
1	2583	497	1
1	2583	497	0
1	2598	502	1
1	2598	502	0
1	2611	506	1
1	2611	506	0
1	2620	508	1
1	2620	508	0
1	2635	511	1
1	2646	513	0
1	2686	523	1
1	2686	523	0
1	2697	526	1
1	2697	526	0
1	2709	528	1
1	2709	528	0
1	2726	533	1
1	2726	533	0
1	2731	534	1
1	2733	534	0
1	2770	540	1
1	2770	540	0
1	2834	552	1
1	2834	552	0
1	2865	556	1
1	2865	556	0
1	2876	558	1
1	2876	558	0
1	2877	558	1
1	2898	563	0
1	2943	572	1
1	2943	572	0
1	2944	572	1
1	2954	573	0
1	2990	578	1
1	2990	578	0
1	3013	582	1
1	3013	582	0
1	3020	583	1
1	3022	583	0
1	3041	586	1
1	3041	586	0
1	3048	587	1
1	3051	587	0
1	3069	590	1
1	3069	590	0
1	3098	596	1
1	3098	596	0
1	3121	599	1
1	3126	600	2
1	3127	600	3
1	3134	601	2
1	3145	602	3
1	3147	602	2
1	3158	603	1
1	3169	604	0
1	3184	606	1
1	3184	606	0
1	3204	609	1
1	3204	609	0
1	3222	611	1
1	3222	611	0
1	3229	612	1
1	3231	612	0
1	3247	616	1
1	3247	616	0
1	3261	618	1
1	3261	618	0
1	3271	619	1
1	3284	623	0
1	3285	623	1
1	3291	624	0
1	3344	638	1
1	3344	638	0
1	3353	640	1
1	3353	640	0
1	3358	641	1
1	3360	641	0
1	3369	643	1
1	3369	643	0
1	3413	655	1
1	3413	655	0
1	3414	655	1
1	3419	656	2
1	3421	656	1
1	3427	657	0
1	3443	660	1
1	3443	660	0
1	3461	663	1
1	3477	665	0
1	3478	665	1
1	3487	666	0
1	3500	668	1
1	3500	668	0
1	3511	671	1
1	3511	671	0
1	3512	671	1
1	3518	672	0
1	3529	675	1
1	3529	675	0
1	3548	682	1
1	3548	682	0
1	3580	689	1
1	3580	689	0
1	3591	691	1
1	3591	691	0
1	3636	699	1
1	3636	699	0
1	3652	702	1
1	3658	704	0
1	3676	709	1
1	3676	709	0
1	3719	717	1
1	3719	717	0
1	3763	724	1
1	3763	724	0
1	3790	731	1
1	3790	731	0
1	3831	739	1
1	3831	739	0
1	3844	742	1
1	3844	742	0
1	3896	753	1
1	3896	753	0
1	3918	760	1
1	3918	760	0
1	3940	763	1
1	3940	763	0
1	3949	764	1
1	3962	768	0
1	4051	790	1
1	4051	790	0
1	4065	792	1
1	4065	792	0
1	4066	792	1
1	4072	793	0
1	4098	797	1
1	4098	797	0
1	4105	798	1
1	4109	798	0
1	4116	799	1
1	4121	799	0
1	4144	804	1
1	4144	804	0
1	4167	807	1
1	4167	807	0
1	4184	809	1
1	4184	809	0
1	4185	809	1
1	4223	814	0
1	4256	822	1
1	4256	822	0
1	4285	827	1
1	4285	827	0
1	4308	833	1
1	4308	833	0
1	4313	834	1
1	4315	834	0
1	4332	840	1
1	4332	840	0
1	4337	841	1
1	4339	841	0
1	4348	843	1
1	4348	843	0
1	4349	843	1
1	4356	844	0
1	4421	857	1
1	4421	857	0
1	4447	862	1
1	4447	862	0
1	4553	891	1
1	4553	891	0
1	4573	895	1
1	4573	895	0
1	4603	901	1
1	4603	901	0
1	4614	903	1
1	4614	903	0
1	4625	906	1
1	4625	906	0
1	4694	926	1
1	4694	926	0
1	4718	930	1
1	4718	930	0
1	4727	932	1
1	4727	932	0
1	4736	934	1
1	4736	934	0
1	4759	940	1
1	4759	940	0
1	4858	963	1
1	4858	963	0
1	4887	967	1
1	4887	967	0
1	4909	970	1
1	4909	970	0
1	4937	975	1
1	4937	975	0
1	4938	975	1
1	4945	976	2
1	4947	976	1
1	4953	977	0
1	4962	979	1
1	4962	979	0
1	5017	989	1
1	5017	989	0
1	5050	998	1
1	5050	998	0
1	5106	1009	1
1	5106	1009	0
1	5117	1011	1
1	5117	1011	0
1	5133	1015	1
1	5133	1015	0
1	5144	1016	1
1	5146	1016	0
1	5194	1027	1
1	5194	1027	0
1	5223	1039	1
1	5223	1039	0
1	5224	1039	1
1	5233	1040	0
1	5297	1057	1
1	5297	1057	0
1	5363	1074	1
1	5363	1074	0
1	5364	1074	1
1	5370	1075	0
1	5388	1081	1
1	5388	1081	0
1	5397	1083	1
1	5397	1083	0
1	5408	1086	1
1	5408	1086	0
1	5416	1087	1
1	5419	1087	0
1	5449	1094	1
1	5449	1094	0
1	5458	1096	1
1	5458	1096	0
1	5480	1102	1
1	5480	1102	0
1	5499	1105	1
1	5499	1105	0
1	5506	1106	1
1	5508	1106	0
1	5513	1107	1
1	5515	1107	0
1	5523	1109	1
1	5531	1112	0
1	5541	1113	1
1	5543	1113	0
1	5552	1114	1
1	5556	1114	0
1	5580	1117	1
1	5580	1117	0
1	5610	1124	1
1	5610	1124	0
1	5643	1133	1
1	5643	1133	0
1	5667	1136	1
1	5667	1136	0
1	5668	1136	1
1	5679	1137	2
1	5680	1137	3
1	5682	1137	2
1	5692	1138	1
1	5699	1139	2
1	5701	1139	1
1	5712	1141	2
1	5722	1144	1
1	5723	1144	2
1	5731	1145	3
1	5734	1145	2
1	5745	1146	1
1	5754	1147	2
1	5758	1147	1
1	5768	1148	0
1	5856	1174	1
1	5856	1174	0
1	5876	1179	1
1	5876	1179	0
1	5881	1180	1
1	5886	1180	0
1	5921	1189	1
1	5921	1189	0
1	5947	1197	1
1	5947	1197	0
1	5962	1200	1
1	5968	1201	2
1	5974	1202	1
1	5980	1203	0
1	5992	1205	1
1	5992	1205	0
1	6022	1210	1
1	6022	1210	0
1	6044	1215	1
1	6044	1215	0
1	6089	1225	1
1	6089	1225	0
1	6101	1227	1
1	6101	1227	0
1	6128	1232	1
1	6128	1232	0
1	6133	1233	1
1	6135	1233	0
1	6151	1236	1
1	6151	1236	0
1	6167	1238	1
1	6179	1240	2
1	6183	1241	1
1	6192	1242	0
1	6205	1245	1
1	6205	1245	0
1	6214	1246	1
1	6217	1246	0
1	6363	1275	1
1	6363	1275	0
1	6400	1285	1
1	6400	1285	0
1	6413	1289	1
1	6413	1289	0
1	6429	1292	1
1	6429	1292	0
1	6450	1295	1
1	6450	1295	0
1	6463	1299	1
1	6463	1299	0
1	6481	1302	1
1	6497	1304	0
1	6512	1306	1
1	6512	1306	0
1	6571	1315	1
1	6571	1315	0
1	6572	1315	1
1	6578	1316	0
1	6587	1318	1
1	6587	1318	0
1	6602	1323	1
1	6602	1323	0
1	6603	1323	1
1	6610	1324	0
1	6617	1325	1
1	6621	1325	0
1	6626	1326	1
1	6628	1326	0
1	6668	1337	1
1	6668	1337	0
1	6669	1337	1
1	6696	1342	0
1	6697	1342	1
1	6704	1343	0
1	6727	1346	1
1	6727	1346	0
1	6738	1348	1
1	6738	1348	0
1	6770	1359	1
1	6770	1359	0
1	6784	1362	1
1	6784	1362	0
1	6795	1364	1
1	6795	1364	0
1	6836	1372	1
1	6836	1372	0
1	6872	1381	1
1	6872	1381	0
1	6879	1382	1
1	6881	1382	0
1	6942	1397	1
1	6942	1397	0
1	6961	1400	1
1	6961	1400	0
1	6962	1400	1
1	6963	1400	2
1	6970	1401	3
1	6972	1401	2
1	6980	1402	1
1	6991	1403	0
1	7016	1409	1
1	7016	1409	0
1	7053	1415	1
1	7053	1415	0
1	7070	1417	1
1	7070	1417	0
1	7083	1420	1
1	7083	1420	0
1	7129	1433	1
1	7129	1433	0
1	7137	1434	1
1	7160	1438	0
1	7161	1438	1
1	7170	1439	0
1	7200	1443	1
1	7200	1443	0
1	7219	1445	1
1	7219	1445	0
1	7244	1450	1
1	7244	1450	0
1	7256	1452	1
1	7256	1452	0
1	7283	1457	1
1	7283	1457	0
1	7295	1459	1
1	7295	1459	0
1	7310	1463	1
1	7310	1463	0
1	7326	1466	1
1	7326	1466	0
1	7359	1473	1
1	7359	1473	0
1	7382	1477	1
1	7382	1477	0
1	7415	1485	1
1	7415	1485	0
1	7431	1488	1
1	7431	1488	0
1	7442	1491	1
1	7442	1491	0
1	7476	1496	1
1	7476	1496	0
1	7525	1505	1
1	7525	1505	0
1	7636	1524	1
1	7636	1524	0
1	7662	1529	1
1	7662	1529	0
1	7688	1534	1
1	7688	1534	0
1	7696	1536	1
1	7701	1538	2
1	7705	1539	1
1	7706	1539	2
1	7711	1540	3
1	7713	1540	2
1	7720	1541	1
1	7730	1542	0
1	7750	1547	1
1	7750	1547	0
1	7766	1551	1
1	7766	1551	0
1	7849	1572	1
1	7849	1572	0
1	7885	1582	1
1	7885	1582	0
1	7896	1585	1
1	7896	1585	0
1	7921	1590	1
1	7921	1590	0
1	8017	1608	1
1	8017	1608	0
1	8094	1626	1
1	8094	1626	0
1	8158	1644	1
1	8158	1644	0
1	8169	1646	1
1	8169	1646	0
1	8170	1646	1
1	8176	1647	0
1	8201	1652	1
1	8201	1652	0
1	8202	1652	1
1	8210	1653	0
1	8229	1656	1
1	8229	1656	0
1	8230	1656	1
1	8241	1657	0
1	8262	1660	1
1	8262	1660	0
1	8263	1660	1
1	8268	1661	2
1	8287	1665	1
1	8298	1666	0
1	8305	1667	1
1	8307	1667	0
1	8415	1686	1
1	8415	1686	0
1	8420	1687	1
1	8422	1687	0
1	8446	1694	1
1	8446	1694	0
1	8474	1699	1
1	8474	1699	0
1	8496	1704	1
1	8496	1704	0
1	8510	1707	1
1	8510	1707	0
1	8511	1707	1
1	8519	1708	0
1	8524	1709	1
1	8535	1713	0
1	8569	1720	1
1	8569	1720	0
1	8578	1722	1
1	8578	1722	0
1	8591	1726	1
1	8591	1726	0
1	8614	1730	1
1	8614	1730	0
1	8639	1738	1
1	8639	1738	0
1	8674	1745	1
1	8674	1745	0
1	8710	1751	1
1	8710	1751	0
1	8766	1761	1
1	8766	1761	0
1	8787	1765	1
1	8787	1765	0
1	8800	1767	1
1	8801	1767	2
1	8806	1768	3
1	8812	1770	2
1	8821	1771	1
1	8832	1772	0
1	8884	1782	1
1	8884	1782	0
1	8898	1784	1
1	8898	1784	0
1	8909	1785	1
1	8912	1785	0
1	8929	1787	1
1	8929	1787	0
1	8988	1799	1
1	8988	1799	0
1	9067	1817	1
1	9067	1817	0
1	9068	1817	1
1	9075	1818	2
1	9077	1818	1
1	9094	1822	2
1	9098	1823	1
1	9106	1824	2
1	9110	1824	1
1	9120	1825	0
1	9129	1826	1
1	9131	1826	0
1	9214	1854	1
1	9214	1854	0
1	9247	1863	1
1	9247	1863	0
1	9275	1867	1
1	9275	1867	0
1	9280	1868	1
1	9281	1868	2
1	9283	1868	1
1	9291	1869	0
1	9373	1886	1
1	9373	1886	0
1	9421	1897	1
1	9421	1897	0
1	9481	1912	1
1	9481	1912	0
1	9490	1914	1
1	9490	1914	0
1	9501	1917	1
1	9501	1917	0
1	9521	1922	1
1	9521	1922	0
1	9643	1948	1
1	9643	1948	0
1	9669	1957	1
1	9669	1957	0
1	9676	1958	1
1	9678	1958	0
1	9696	1963	1
1	9696	1963	0
1	9709	1966	1
1	9709	1966	0
1	9745	1971	1
1	9745	1971	0
1	9827	1983	1
1	9827	1983	0
1	9828	1983	1
1	9836	1984	0
1	9849	1988	1
1	9849	1988	0
1	9854	1989	1
1	9856	1989	0
1	9861	1990	1
1	9863	1990	0
1	9868	1991	1
1	9869	1991	2
1	9871	1991	1
1	9877	1992	0
1	9882	1993	1
1	9884	1993	0
1	9889	1994	1
1	9891	1994	0
1	9936	2001	1
1	9936	2001	0
1	9966	2007	1
1	9966	2007	0
1	9977	2009	1
1	9977	2009	0
1	10000	2013	1
1	10000	2013	0
1	10072	2024	1
1	10072	2024	0
1	10086	2026	1
1	10086	2026	0
1	10104	2030	1
1	10104	2030	0
1	10202	2049	1
1	10202	2049	0
1	10219	2053	1
1	10219	2053	0
1	10241	2056	1
1	10241	2056	0
1	10254	2058	1
1	10259	2060	2
1	10263	2061	1
1	10276	2062	0
1	10285	2063	1
1	10288	2063	0
1	10312	2066	1
1	10312	2066	0
1	10321	2067	1
1	10323	2067	0
1	10342	2071	1
1	10342	2071	0
1	10361	2074	1
1	10361	2074	0
1	10368	2075	1
1	10370	2075	0
1	10403	2084	1
1	10403	2084	0
1	10451	2096	1
1	10451	2096	0
1	10495	2102	1
1	10495	2102	0
1	10525	2107	1
1	10525	2107	0
1	10543	2109	1
1	10543	2109	0
1	10562	2111	1
1	10562	2111	0
1	10597	2118	1
1	10597	2118	0
1	10602	2119	1
1	10604	2119	0
1	10657	2138	1
1	10657	2138	0
1	10697	2148	1
1	10697	2148	0
1	10734	2155	1
1	10734	2155	0
1	10760	2160	1
1	10760	2160	0
1	10779	2163	1
1	10787	2165	0
1	10814	2171	1
1	10814	2171	0
1	10836	2177	1
1	10836	2177	0
1	10845	2179	1
1	10845	2179	0
1	10850	2180	1
1	10851	2180	2
1	10853	2180	1
1	10859	2181	0
1	10864	2182	1
1	10867	2182	0
1	10890	2185	1
1	10890	2185	0
1	10897	2186	1
1	10899	2186	0
1	10908	2188	1
1	10908	2188	0
1	10913	2189	1
1	10924	2193	0
1	10955	2199	1
1	10955	2199	0
1	10973	2201	1
1	10973	2201	0
1	11025	2214	1
1	11025	2214	0
1	11090	2227	1
1	11090	2227	0
1	11113	2235	1
1	11113	2235	0
1	11148	2240	1
1	11148	2240	0
1	11161	2244	1
1	11161	2244	0
1	11166	2245	1
1	11169	2245	0
1	11187	2247	1
1	11187	2247	0
1	11211	2250	1
1	11223	2252	0
1	11274	2266	1
1	11274	2266	0
1	11287	2269	1
1	11287	2269	0
1	11308	2277	1
1	11308	2277	0
1	11324	2280	1
1	11324	2280	0
1	11335	2283	1
1	11335	2283	0
1	11376	2288	1
1	11376	2288	0
1	11399	2291	1
1	11399	2291	0
1	11406	2292	1
1	11407	2292	2
1	11409	2292	1
1	11417	2293	0
1	11431	2295	1
1	11432	2295	2
1	11443	2296	3
1	11457	2298	2
1	11458	2298	3
1	11468	2299	2
1	11478	2300	1
1	11485	2301	2
1	11489	2301	1
1	11499	2302	0
1	11524	2308	1
1	11524	2308	0
1	11548	2314	1
1	11548	2314	0
1	11566	2318	1
1	11566	2318	0
1	11605	2323	1
1	11605	2323	0
1	11622	2326	1
1	11622	2326	0
1	11623	2326	1
1	11641	2329	2
1	11649	2331	1
1	11655	2332	0
1	11686	2337	1
1	11686	2337	0
1	11717	2341	1
1	11717	2341	0
1	11768	2351	1
1	11768	2351	0
1	11787	2358	1
1	11787	2358	0
1	11819	2364	1
1	11819	2364	0
1	11840	2368	1
1	11840	2368	0
1	11862	2373	1
1	11862	2373	0
1	11863	2373	1
1	11869	2374	0
1	11904	2386	1
1	11904	2386	0
1	11940	2394	1
1	11940	2394	0
1	11956	2397	1
1	11956	2397	0
1	11967	2400	1
1	11967	2400	0
1	11972	2401	1
1	11974	2401	0
1	11998	2408	1
1	11998	2408	0
1	12006	2409	1
1	12008	2409	0
1	12049	2416	1
1	12049	2416	0
1	12096	2425	1
1	12096	2425	0
1	12130	2429	1
1	12130	2429	0
1	12146	2431	1
1	12151	2432	2
1	12161	2434	1
1	12171	2435	0
1	12209	2443	1
1	12209	2443	0
1	12225	2446	1
1	12225	2446	0
1	12234	2448	1
1	12234	2448	0
1	12250	2451	1
1	12250	2451	0
1	12275	2456	1
1	12275	2456	0
1	12314	2466	1
1	12314	2466	0
1	12362	2477	1
1	12362	2477	0
1	12382	2482	1
1	12382	2482	0
1	12394	2486	1
1	12398	2487	0
1	12399	2487	1
1	12404	2488	2
1	12408	2488	1
1	12418	2489	0
1	12438	2492	1
1	12438	2492	0
1	12443	2493	1
1	12445	2493	0
1	12484	2503	1
1	12484	2503	0
1	12493	2504	1
1	12495	2504	0
1	12589	2525	1
1	12589	2525	0
1	12594	2526	1
1	12597	2526	0
1	12614	2530	1
1	12614	2530	0
1	12626	2534	1
1	12630	2535	0
1	12655	2538	1
1	12655	2538	0
1	12755	2555	1
1	12755	2555	0
1	12805	2565	1
1	12805	2565	0
1	12860	2575	1
1	12860	2575	0
1	12861	2575	1
1	12869	2576	2
1	12871	2576	1
1	12879	2577	0
1	12943	2594	1
1	12943	2594	0
1	13009	2608	1
1	13009	2608	0
1	13036	2613	1
1	13036	2613	0
1	13053	2617	1
1	13054	2617	2
1	13058	2618	1
1	13065	2619	0
1	13101	2627	1
1	13101	2627	0
1	13134	2634	1
1	13134	2634	0
1	13156	2640	1
1	13156	2640	0
1	13165	2642	1
1	13165	2642	0
1	13166	2642	1
1	13172	2643	0
1	13194	2649	1
1	13194	2649	0
1	13195	2649	1
1	13203	2650	0
1	13227	2653	1
1	13227	2653	0
1	13243	2655	1
1	13256	2658	0
1	13263	2659	1
1	13267	2659	0
1	13283	2661	1
1	13283	2661	0
1	13300	2664	1
1	13300	2664	0
1	13305	2665	1
1	13307	2665	0
1	13330	2670	1
1	13330	2670	0
1	13365	2679	1
1	13365	2679	0
1	13403	2688	1
1	13403	2688	0
1	13414	2691	1
1	13414	2691	0
1	13463	2704	1
1	13463	2704	0
1	13486	2709	1
1	13486	2709	0
1	13508	2715	1
1	13508	2715	0
1	13527	2718	1
1	13527	2718	0
1	13584	2728	1
1	13584	2728	0
1	13615	2736	1
1	13615	2736	0
1	13670	2746	1
1	13670	2746	0
1	13702	2753	1
1	13702	2753	0
1	13724	2758	1
1	13724	2758	0
1	13801	2776	1
1	13801	2776	0
1	13831	2780	1
1	13831	2780	0
1	13846	2782	1
1	13856	2784	2
1	13863	2785	1
1	13873	2786	0
1	13916	2796	1
1	13916	2796	0
1	13931	2801	1
1	13931	2801	0
1	13936	2802	1
1	13938	2802	0
1	13947	2804	1
1	13947	2804	0
1	13959	2806	1
1	13959	2806	0
1	13978	2812	1
1	13978	2812	0
1	14008	2818	1
1	14008	2818	0
1	14018	2819	1
1	14020	2819	0
1	14030	2821	1
1	14047	2824	0
1	14080	2830	1
1	14080	2830	0
1	14121	2836	1
1	14121	2836	0
1	14165	2846	1
1	14165	2846	0
1	14176	2847	1
1	14179	2847	0
1	14188	2848	1
1	14189	2848	2
1	14191	2848	1
1	14201	2849	0
1	14251	2856	1
1	14251	2856	0
1	14260	2857	1
1	14262	2857	0
1	14269	2858	1
1	14272	2858	0
1	14299	2865	1
1	14299	2865	0
1	14383	2882	1
1	14383	2882	0
1	14390	2883	1
1	14392	2883	0
1	14397	2884	1
1	14399	2884	0
1	14422	2888	1
1	14422	2888	0
1	14469	2899	1
1	14469	2899	0
1	14474	2900	1
1	14475	2900	2
1	14477	2900	1
1	14484	2901	0
1	14522	2908	1
1	14522	2908	0
1	14558	2914	1
1	14558	2914	0
1	14572	2916	1
1	14589	2919	0
1	14604	2921	1
1	14604	2921	0
1	14629	2927	1
1	14629	2927	0
1	14636	2928	1
1	14638	2928	0
1	14670	2939	1
1	14670	2939	0
1	14698	2944	1
1	14698	2944	0
1	14699	2944	1
1	14712	2945	0
1	14760	2955	1
1	14760	2955	0
1	14794	2962	1
1	14794	2962	0
1	14838	2969	1
1	14838	2969	0
1	14865	2976	1
1	14865	2976	0
1	14881	2979	1
1	14881	2979	0
1	14899	2983	1
1	14899	2983	0
1	14919	2988	1
1	14919	2988	0
1	14930	2991	1
1	14930	2991	0
1	14943	2993	1
1	14943	2993	0
1	14953	2994	1
1	14955	2994	0
1	14988	3000	1
1	14988	3000	0
1	15009	3004	1
1	15009	3004	0
1	15035	3011	1
1	15035	3011	0
1	15045	3014	1
1	15051	3016	0
1	15060	3018	1
1	15060	3018	0
1	15086	3022	1
1	15086	3022	0
1	15087	3022	1
1	15094	3023	2
1	15096	3023	1
1	15101	3024	2
1	15104	3024	1
1	15114	3025	0
1	15123	3027	1
1	15123	3027	0
1	15160	3034	1
1	15160	3034	0
1	15194	3045	1
1	15194	3045	0
1	15223	3053	1
1	15223	3053	0
1	15224	3053	1
1	15236	3056	2
1	15245	3058	1
1	15253	3059	0
1	15273	3065	1
1	15273	3065	0
1	15341	3083	1
1	15341	3083	0
1	15380	3095	1
1	15380	3095	0
1	15407	3101	1
1	15407	3101	0
1	15452	3111	1
1	15452	3111	0
1	15465	3115	1
1	15465	3115	0
1	15507	3126	1
1	15507	3126	0
1	15536	3131	1
1	15536	3131	0
1	15547	3132	1
1	15555	3133	2
1	15572	3136	1
1	15583	3137	0
1	15651	3155	1
1	15651	3155	0
1	15673	3161	1