version 3
run Experimentos-921-20260508-20:06:23-32439
attr configname Experimentos
attr datetime 20260508-20:06:23
attr datetimef 20260508-200623
attr experiment Experimentos
attr inifile TwoQueues.ini
attr iterationvars "$p=0.7, $q=0.3, $Y=30, $m=4"
attr iterationvarsd p=0.7/q=0.3/Y=30/m=4
attr iterationvarsf p=0.7,q=0.3,Y=30,m=4-
attr measurement "$p=0.7, $q=0.3, $Y=30, $m=4"
attr network TwoQueues
attr processid 32439
attr repetition 1
attr replication #1
attr resultdir results
attr runnumber 921
attr seedset 921
itervar Y 30
itervar m 4
itervar p 0.7
itervar q 0.3
config description "Barrido completo de parámetros Proyecto 12"
config **.source1.p 0.7
config **.source1.q 0.2
config **.source2.p 0.6
config **.source2.q 0.3
config **.serverWithMaintenance.Y 30
config **.serverWithMaintenance.m 4
config network TwoQueues
config cpu-time-limit 5000s
config sim-time-limit 5000s
config warmup-period 400s
config repeat 20
config output-scalar-file results/Experimentos-p=0.7,q=0.3,Y=30,m=4--#1.sca
config output-vector-file results/Experimentos-p=0.7,q=0.3,Y=30,m=4--#1.vec
config **.vector-recording true

vector 0 TwoQueues.serverWithMaintenance residenceTime2:vector ETV
attr recordingmode vector
attr source delay2
attr title "Residence Time Class 2"
vector 1 TwoQueues.queue2 queueLengthStats:vector ETV
attr recordingmode vector
attr source qlen
attr title "Average Queue Length"
vector 2 TwoQueues.queue1 queueLengthStats:vector ETV
attr recordingmode vector
attr source qlen
attr title "Average Queue Length"
vector 3 TwoQueues.server residenceTime1:vector ETV
attr recordingmode vector
attr source delay1
attr title "Residence Time Class 1"
vector 4 TwoQueues.server throughputStats1:vector ETV
attr recordingmode vector
attr source throughput1
attr title "Throughput Class 1"
0	2125	404	1
0	2197	417	1
0	2228	421	1
0	2238	422	2
0	2249	423	1
0	2260	425	1
0	2268	426	1
0	2274	427	2
0	2283	429	1
0	2308	435	1
0	2317	436	2
0	2360	449	1
0	2384	457	1
0	2391	458	1
0	2398	459	1
0	2416	463	1
0	2430	465	1
0	2453	471	1
0	2470	476	6
0	2483	477	1
0	2495	478	1
0	2507	479	1
0	2551	485	1
0	2571	490	1
0	2632	498	1
0	2643	499	1
0	2654	500	1
0	2703	510	1
0	2753	520	1
0	2765	521	1
0	2784	523	1
0	2806	526	1
0	2847	538	1
0	2860	541	1
0	2874	544	1
0	2904	549	1
0	2914	550	1
0	2948	556	1
0	2969	559	1
0	2994	564	1
0	3025	570	1
0	3056	575	1
0	3065	577	1
0	3083	581	1
0	3114	589	1
0	3128	592	1
0	3140	593	1
0	3161	597	1
0	3196	602	6
0	3203	603	1
0	3221	607	1
0	3228	608	1
0	3258	612	1
0	3291	616	1
0	3316	621	1
0	3328	622	1
0	3357	632	1
0	3363	633	2
0	3374	634	1
0	3386	635	2
0	3417	639	1
0	3436	641	1
0	3448	643	1
0	3471	647	1
0	3485	649	1
0	3496	651	1
0	3512	653	1
0	3522	654	2
0	3537	657	1
0	3546	658	2
0	3556	659	1
0	3565	660	2
0	3577	661	1
0	3587	662	1
0	3593	663	2
0	3602	665	1
0	3609	666	1
0	3619	667	1
0	3649	672	4
0	3655	673	4
0	3661	674	3
0	3668	675	1
0	3677	677	1
0	3695	681	1
0	3702	682	1
0	3727	688	1
0	3738	689	2
0	3750	691	1
0	3782	702	1
0	3791	704	1
0	3798	705	1
0	3806	706	1
0	3816	707	2
0	3831	709	1
0	3838	710	1
0	3851	711	1
0	3861	712	2
0	3900	717	1
0	3911	718	1
0	3925	721	1
0	3934	723	1
0	3948	727	1
0	3954	728	2
0	3961	729	1
0	3968	730	1
0	3982	733	1
0	3992	734	2
0	4001	735	2
0	4026	740	4
0	4034	741	4
0	4040	742	3
0	4046	743	3
0	4055	744	4
0	4064	745	1
0	4078	747	1
0	4110	753	1
0	4126	756	1
0	4140	758	1
0	4147	759	1
0	4170	763	1
0	4177	764	1
0	4193	766	1
0	4208	768	1
0	4217	769	2
0	4228	770	1
0	4244	772	1
0	4254	773	2
0	4287	783	1
0	4302	785	1
0	4355	793	1
0	4364	795	1
0	4374	797	1
0	4380	798	2
0	4387	799	1
0	4396	801	1
0	4407	802	1
0	4424	804	1
0	4440	808	1
0	4477	813	2
0	4488	814	2
0	4498	815	2
0	4511	816	1
0	4523	817	2
0	4538	819	1
0	4577	824	1
0	4588	825	2
0	4599	826	3
0	4609	827	1
0	4625	829	1
0	4674	839	1
0	4683	840	2
0	4695	841	1
0	4704	842	1
0	4720	844	1
0	4748	849	1
0	4755	850	1
0	4768	854	1
0	4779	855	1
0	4794	857	1
0	4801	858	1
0	4836	863	1
0	4867	871	1
0	4874	872	1
0	4881	873	1
0	4890	875	1
0	4902	878	1
0	4915	879	2
0	4950	884	1
0	4974	889	3
0	4989	893	1
0	5003	895	1
0	5009	896	2
0	5015	897	3
0	5040	902	1
0	5050	904	1
0	5056	905	2
0	5075	908	1
0	5084	909	2
0	5113	913	1
0	5126	914	1
0	5157	918	1
0	5196	925	1
0	5235	931	1
0	5249	933	1
0	5281	940	1
0	5300	942	1
0	5310	943	2
0	5326	945	1
0	5400	955	1
0	5424	959	1
0	5442	962	1
0	5452	963	1
0	5467	967	1
0	5484	969	1
0	5506	975	1
0	5527	983	1
0	5534	984	1
0	5577	993	1
0	5608	998	1
0	5624	1000	1
0	5638	1003	1
0	5649	1006	1
0	5671	1010	1
0	5682	1011	1
0	5699	1013	1
0	5708	1014	2
0	5718	1015	1
0	5724	1016	2
0	5731	1017	1
0	5745	1019	1
0	5760	1024	1
0	5799	1031	1
0	5809	1032	2
0	5832	1035	1
0	5843	1037	1
0	5908	1048	1
0	5951	1062	1
0	5976	1067	1
0	5987	1070	1
0	6007	1075	1
0	6036	1087	1
0	6043	1088	1
0	6050	1089	1
0	6074	1095	1
0	6086	1096	1
0	6107	1100	1
0	6119	1102	1
0	6148	1107	1
0	6196	1124	1
0	6210	1126	1
0	6233	1135	1
0	6261	1140	1
0	6272	1141	1
0	6283	1142	1
0	6289	1143	2
0	6301	1145	1
0	6333	1150	1
0	6374	1162	1
0	6386	1164	1
0	6397	1167	1
0	6433	1174	1
0	6443	1175	1
0	6450	1176	1
0	6466	1179	1
0	6473	1180	1
0	6526	1194	1
0	6535	1196	1
0	6543	1197	1
0	6553	1198	2
0	6568	1200	1
0	6586	1204	1
0	6624	1210	1
0	6641	1212	1
0	6652	1213	1
0	6663	1214	1
0	6677	1217	1
0	6703	1225	1
0	6710	1226	1
0	6741	1231	1
0	6749	1232	1
0	6760	1233	2
0	6772	1234	2
0	6783	1235	3
0	6791	1236	2
0	6842	1243	1
0	6854	1244	2
0	6872	1246	1
0	6882	1247	2
0	6906	1251	1
0	6922	1254	1
0	6935	1257	1
0	6947	1259	1
0	6977	1264	1
0	6995	1267	1
0	7012	1269	1
0	7027	1273	1
0	7100	1287	1
0	7110	1288	1
0	7126	1290	1
0	7181	1297	1
0	7210	1303	1
0	7226	1306	1
0	7237	1309	1
0	7259	1314	1
0	7277	1319	1
0	7303	1322	1
0	7330	1325	1
0	7401	1341	1
0	7426	1346	5
0	7435	1347	6
0	7441	1348	5
0	7469	1356	1
0	7523	1363	1
0	7552	1370	1
0	7576	1373	1
0	7586	1374	1
0	7606	1378	1
0	7613	1379	1
0	7626	1383	1
0	7642	1388	1
0	7649	1389	2
0	7655	1390	2
0	7662	1391	1
0	7669	1392	1
0	7679	1393	1
0	7696	1396	1
0	7707	1397	2
0	7716	1398	2
0	7729	1401	1
0	7745	1405	1
0	7763	1408	1
0	7781	1411	1
0	7791	1412	2
0	7801	1413	1
0	7811	1414	1
0	7820	1415	1
0	7838	1419	1
0	7845	1420	1
0	7874	1425	3
0	7885	1426	3
0	7907	1428	1
0	7917	1429	2
0	7926	1430	3
0	7967	1438	1
0	7978	1440	1
0	8002	1444	1
0	8013	1445	1
0	8026	1446	1
0	8037	1447	1
0	8063	1450	1
0	8075	1452	1
0	8123	1461	1
0	8141	1464	1
0	8188	1470	1
0	8195	1471	2
0	8201	1472	3
0	8213	1473	3
0	8224	1474	2
0	8240	1476	1
0	8252	1478	1
0	8294	1486	1
0	8300	1487	2
0	8313	1491	1
0	8431	1516	1
0	8449	1519	1
0	8468	1521	1
0	8496	1525	1
0	8508	1527	1
0	8544	1532	2
0	8555	1533	1
0	8568	1534	1
0	8581	1535	2
0	8593	1536	2
0	8605	1537	2
0	8616	1538	2
0	8625	1539	2
0	8632	1540	1
0	8652	1545	1
0	8665	1548	1
0	8675	1549	1
0	8688	1552	1
0	8707	1555	1
0	8723	1558	1
0	8734	1560	1
0	8744	1561	1
0	8753	1563	1
0	8767	1565	1
0	8792	1569	1
0	8802	1570	1
0	8816	1572	1
0	8835	1575	1
0	8844	1576	2
0	8858	1579	1
0	8869	1580	2
0	8900	1585	1
0	8925	1589	1
0	8961	1595	1
0	8985	1598	1
0	9014	1603	4
0	9034	1608	1
0	9077	1616	1
0	9118	1624	1
0	9131	1625	1
0	9140	1626	2
0	9153	1629	1
0	9207	1640	1
0	9240	1645	1
0	9261	1649	1
0	9278	1651	1
0	9287	1652	2
0	9310	1655	1
0	9341	1659	1
0	9357	1662	1
0	9367	1663	1
0	9380	1666	1
0	9401	1669	1
0	9408	1670	1
0	9423	1672	1
0	9429	1673	2
0	9445	1676	1
0	9457	1679	1
0	9468	1680	2
0	9477	1681	2
0	9483	1682	3
0	9490	1683	3
0	9496	1684	2
0	9519	1687	1
0	9538	1691	1
0	9557	1696	6
0	9567	1697	3
0	9589	1700	1
0	9611	1705	1
0	9623	1706	1
0	9639	1710	1
0	9652	1713	1
0	9664	1714	1
0	9687	1717	1
0	9697	1718	2
0	9711	1720	1
0	9743	1727	1
0	9759	1730	1
0	9801	1740	1
0	9811	1741	1
0	9836	1745	1
0	9857	1749	1
0	9880	1753	1
0	9906	1761	1
0	9913	1762	1
0	9925	1764	1
0	9945	1766	1
0	9963	1768	1
0	9995	1773	1
0	10049	1785	1
0	10059	1786	2
0	10071	1787	1
0	10089	1790	1
0	10100	1792	1
0	10137	1799	1
0	10165	1804	4
0	10171	1805	4
0	10177	1806	4
0	10185	1807	1
0	10194	1808	2
0	10203	1809	1
0	10230	1817	1
0	10236	1818	2
0	10244	1819	1
0	10250	1820	2
0	10261	1823	1
0	10268	1824	1
0	10279	1826	1
0	10291	1828	1
0	10305	1831	1
0	10314	1832	2
0	10364	1842	1
0	10406	1851	1
0	10424	1853	1
0	10456	1858	1
0	10520	1873	1
0	10551	1877	1
0	10561	1878	1
0	10604	1887	1
0	10670	1905	1
0	10679	1907	1
0	10716	1917	1
0	10726	1918	1
0	10780	1928	1
0	10804	1931	1
0	10823	1936	1
0	10850	1941	1
0	10862	1943	1
0	10869	1944	1
0	10895	1952	1
0	10904	1954	1
0	10919	1959	1
0	10935	1962	1
0	10972	1968	1
0	10979	1969	1
0	10996	1974	1
0	11005	1975	2
0	11016	1976	3
0	11086	1986	1
0	11113	1991	1
0	11129	1993	1
0	11142	1994	1
0	11154	1995	1
0	11183	2001	1
0	11193	2002	1
0	11209	2004	1
0	11221	2006	1
0	11239	2008	1
0	11253	2011	1
0	11273	2016	1
0	11317	2023	1
0	11326	2025	1
0	11340	2029	1
0	11347	2030	2
0	11360	2031	2
0	11401	2036	3
0	11413	2037	3
0	11480	2049	1
0	11491	2052	1
0	11499	2053	1
0	11510	2054	2
0	11521	2055	2
0	11529	2056	2
0	11579	2067	1
0	11597	2070	1
0	11610	2073	1
0	11650	2083	1
0	11662	2085	1
0	11674	2087	1
0	11683	2088	2
0	11708	2093	1
0	11758	2105	1
0	11767	2106	2
0	11806	2112	1
0	11819	2116	1
0	11893	2133	1
0	11903	2134	1
0	11924	2138	1
0	11934	2139	2
0	11943	2140	2
0	11949	2141	2
0	11975	2149	1
0	11985	2150	1
0	11996	2152	1
0	12021	2155	1
0	12058	2160	6
0	12067	2162	1
0	12079	2164	1
0	12090	2165	2
0	12098	2166	2
0	12104	2167	3
0	12110	2168	3
0	12116	2169	4
0	12126	2170	1
0	12146	2173	1
0	12156	2174	1
0	12190	2183	1
0	12198	2184	2
0	12204	2185	2
0	12215	2186	3
0	12227	2187	2
0	12237	2188	2
0	12246	2189	3
0	12260	2190	3
0	12270	2191	4
0	12312	2196	1
0	12336	2199	1
0	12353	2201	1
0	12391	2209	1
0	12409	2213	1
0	12420	2216	1
0	12473	2223	1
0	12504	2227	1
0	12525	2231	1
0	12547	2238	1
0	12582	2243	6
0	12591	2244	6
0	12599	2245	5
0	12606	2246	1
0	12615	2248	1
0	12631	2251	1
0	12638	2252	1
0	12655	2254	1
0	12667	2255	2
0	12676	2256	2
0	12688	2258	1
0	12736	2266	1
0	12856	2291	1
0	12864	2292	1
0	12870	2293	2
0	12877	2294	1
0	12902	2299	1
0	12929	2307	1
0	12935	2308	2
0	12949	2311	1
0	12972	2314	1
0	12985	2316	1
0	13021	2321	1
0	13070	2330	1
0	13079	2331	2
0	13089	2332	1
0	13101	2333	2
0	13119	2335	1
0	13131	2336	2
0	13140	2337	3
0	13162	2342	7
0	13172	2343	8
0	13181	2344	4
0	13187	2345	4
0	13193	2346	4
0	13199	2347	4
0	13208	2349	1
0	13234	2353	1
0	13256	2355	1
0	13267	2356	2
0	13301	2361	1
0	13312	2362	1
0	13332	2364	1
0	13343	2365	2
0	13384	2372	1
0	13399	2377	1
0	13433	2382	1
0	13457	2385	1
0	13468	2386	1
0	13479	2387	2
0	13487	2388	2
0	13495	2389	3
0	13501	2390	2
0	13507	2391	3
0	13518	2392	1
0	13529	2393	1
0	13541	2394	1
0	13552	2396	1
0	13561	2398	1
0	13577	2401	1
0	13595	2406	2
0	13602	2407	3
0	13608	2408	4
0	13617	2409	3
0	13626	2410	1
0	13633	2411	1
0	13646	2415	1
0	13662	2420	1
0	13671	2421	2
0	13682	2423	1
0	13691	2425	1
0	13709	2428	1
0	13725	2431	1
0	13739	2433	1
0	13750	2434	1
0	13756	2435	2
0	13772	2437	1
0	13782	2438	1
0	13791	2440	1
0	13828	2445	1
0	13864	2454	1
0	13880	2456	1
0	13914	2464	1
0	13927	2467	1
0	13937	2468	1
0	13957	2473	1
0	13975	2476	1
0	13987	2478	1
0	14001	2480	1
0	14012	2481	2
0	14035	2486	6
0	14041	2487	5
0	14064	2496	1
0	14121	2507	1
0	14139	2511	1
0	14146	2512	1
0	14167	2515	1
0	14178	2518	1
0	14196	2524	1
0	14202	2525	2
0	14224	2531	1
0	14231	2532	1
0	14251	2536	1
0	14283	2543	1
0	14292	2544	1
0	14299	2545	2
0	14305	2546	3
0	14311	2547	3
0	14324	2550	1
0	14363	2558	1
0	14402	2565	1
0	14409	2566	1
0	14419	2567	1
0	14428	2568	1
0	14437	2570	1
0	14448	2572	1
0	14478	2578	1
0	14493	2580	1
0	14504	2581	2
0	14514	2582	3
0	14540	2587	7
0	14552	2588	1
0	14563	2589	1
0	14633	2605	1
0	14702	2618	1
0	14725	2622	1
0	14731	2623	2
0	14737	2624	3
0	14744	2625	4
0	14750	2626	2
0	14769	2633	1
0	14804	2645	1
0	14814	2646	2
0	14825	2647	1
0	14856	2659	1
0	14878	2664	1
0	14892	2667	1
0	14899	2668	1
0	14909	2669	1
0	14973	2682	1
0	14979	2683	2
0	14994	2688	1
0	15026	2694	1
0	15037	2695	1
0	15054	2697	1
0	15103	2705	1
0	15117	2709	1
0	15126	2710	2
0	15138	2711	1
0	15163	2715	1
0	15189	2720	5
0	15215	2727	1
0	15225	2728	1
0	15234	2730	1
0	15241	2731	1
0	15248	2732	1
0	15273	2738	1
0	15287	2739	2
0	15341	2746	1
0	15358	2748	1
0	15370	2749	1
0	15380	2750	2
0	15389	2751	2
0	15402	2753	1
0	15414	2755	1
0	15424	2756	1
0	15433	2757	1
0	15450	2759	1
0	15466	2761	1
0	15501	2771	1
0	15526	2778	1
0	15533	2779	2
0	15539	2780	2
0	15548	2782	1
0	15580	2788	1
0	15614	2800	1
0	15630	2803	1
0	15662	2809	1
0	15675	2810	1
0	15720	2818	1
0	15738	2823	5
0	15744	2824	5
0	15750	2825	3
0	15764	2827	1
0	15818	2835	1
0	15829	2836	1
0	15852	2841	1
0	15914	2856	1
0	15925	2857	1
0	15931	2858	2
0	15956	2862	1
0	15968	2864	1
0	15980	2866	1
0	15992	2867	2
0	16001	2868	2
0	16011	2870	1
0	16017	2871	2
0	16057	2877	1
0	16075	2880	1
0	16102	2886	1
0	16110	2887	1
0	16116	2888	2
0	16123	2889	1
0	16130	2890	1
0	16137	2891	1
0	16158	2894	1
0	16190	2900	1
0	16222	2906	1
0	16233	2909	1
0	16250	2911	1
0	16288	2916	4
0	16295	2917	1
0	16302	2918	1
0	16338	2926	1
0	16356	2930	1
0	16365	2932	1
0	16372	2933	1
0	16383	2936	1
0	16390	2937	1
0	16401	2940	1
0	16422	2944	1
0	16449	2949	1
0	16461	2952	1
0	16468	2953	2
0	16474	2954	2
0	16525	2962	1
0	16563	2967	1
0	16592	2972	1
0	16604	2974	1
0	16613	2976	1
0	16679	2985	1
0	16698	2988	1
0	16704	2989	2
0	16717	2993	1
0	16758	3001	1
0	16769	3002	1
0	16793	3005	1
0	16805	3007	1
0	16816	3010	1
0	16838	3015	1
0	16887	3024	1
0	16913	3028	1
0	16921	3029	1
0	16928	3030	2
0	16938	3031	2
0	16946	3032	2
0	16969	3041	1
0	16976	3042	1
0	16987	3044	1
0	16993	3045	2
0	16999	3046	3
0	17014	3051	1
0	17026	3054	1
0	17032	3055	2
0	17045	3056	1
0	17056	3057	1
0	17081	3061	1
0	17107	3066	1
0	17132	3069	1
0	17186	3078	1
0	17205	3080	1
0	17228	3083	1
0	17241	3087	1
0	17249	3088	1
0	17255	3089	2
0	17265	3090	1
0	17305	3097	1
0	17344	3102	1
0	17364	3106	1
0	17412	3116	1
0	17439	3121	4
0	17452	3122	2
0	17464	3123	3
0	17475	3124	2
0	17485	3125	2
0	17496	3126	1
0	17505	3127	2
0	17514	3128	1
0	17577	3143	1
0	17593	3145	1
0	17602	3147	1
0	17612	3148	1
0	17621	3149	1
0	17628	3150	1
0	17639	3152	1
0	17660	3154	1
0	17677	3156	1
0	17710	3163	1
0	17719	3164	2
0	17728	3165	1
0	17735	3166	1
0	17774	3174	1
0	17783	3175	2
0	17809	3183	1
0	17818	3185	1
0	17829	3188	1
0	17843	3191	1
0	17878	3200	1
0	17889	3203	1
0	17902	3207	1
0	17929	3212	3
0	17935	3213	2
0	17946	3216	1
0	17969	3221	1
0	17982	3222	1
0	17999	3224	1
0	18027	3229	1
0	18047	3234	1
0	18133	3251	1
0	18156	3256	1
0	18165	3258	1
0	18191	3266	1
0	18202	3267	1
0	18210	3268	2
0	18223	3271	1
0	18233	3272	1
0	18240	3273	1
0	18254	3275	1
0	18264	3276	1
0	18285	3279	1
0	18317	3284	1
0	18327	3285	1
0	18357	3294	1
0	18375	3298	1
0	18394	3302	1
0	18402	3303	2
0	18408	3304	2
0	18414	3305	3
0	18437	3308	1
0	18447	3309	1
0	18463	3314	1
0	18507	3320	1
0	18528	3323	1
0	18540	3325	1
0	18554	3328	1
0	18566	3329	2
0	18598	3334	1
0	18609	3336	1
0	18623	3339	1
0	18630	3340	1
0	18644	3342	1
0	18651	3343	1
0	18671	3347	1
0	18712	3355	1
0	18724	3356	1
0	18743	3359	1
0	18757	3361	1
0	18765	3362	1
0	18775	3363	2
0	18816	3370	1
0	18873	3378	1
0	18887	3379	1
0	18899	3380	2
0	18985	3401	1
0	18994	3402	2
0	19001	3403	1
0	19008	3404	1
0	19019	3405	1
0	19038	3409	1
0	19055	3412	1
0	19087	3417	6
0	19096	3418	4
0	19107	3419	5
0	19129	3423	1
0	19141	3425	1
0	19152	3426	1
0	19160	3427	2
0	19171	3428	1
0	19217	3434	1
0	19228	3435	1
0	19253	3440	1
0	19279	3443	1
0	19290	3444	1
0	19296	3445	2
0	19306	3446	1
0	19358	3457	1
0	19367	3458	2
0	19385	3461	1
0	19440	3472	1
0	19452	3474	1
0	19463	3475	2
0	19486	3480	1
0	19500	3483	1
0	19509	3484	2
0	19523	3486	1
0	19536	3490	1
0	19543	3491	1
0	19556	3495	1
0	19569	3496	1
0	19580	3497	2
0	19614	3502	7
0	19636	3506	1
0	19646	3507	1
0	19653	3508	1
0	19667	3510	1
0	19726	3522	1
0	19776	3532	1
0	19799	3535	1
0	19826	3543	1
0	19844	3545	1
0	19854	3546	1
0	19864	3547	1
0	19873	3548	1
0	19915	3559	1
0	19929	3561	1
0	19938	3563	1
0	19951	3567	1
0	19969	3570	1
0	19988	3572	1
0	20011	3576	1
0	20049	3582	1
0	20074	3586	1
0	20084	3588	1
0	20094	3589	2
0	20116	3592	1
0	20147	3597	1
0	20159	3598	2
0	20171	3599	2
0	20182	3600	2
0	20194	3601	2
0	20226	3606	6
0	20236	3607	6
0	20269	3612	1
0	20287	3614	1
0	20296	3615	2
0	20319	3618	1
0	20364	3628	1
0	20396	3633	1
0	20428	3640	1
0	20436	3641	1
0	20445	3642	2
0	20457	3644	1
0	20463	3645	2
0	20481	3649	1
0	20490	3651	1
0	20497	3652	1
0	20517	3659	1
0	20523	3660	2
0	20546	3663	1
0	20556	3664	1
0	20564	3665	1
0	20574	3666	2
0	20591	3669	1
0	20654	3679	1
0	20667	3680	1
0	20677	3681	2
0	20687	3682	1
0	20713	3686	1
0	20757	3693	1
0	20783	3697	1
0	20812	3702	6
0	20824	3703	6
0	20835	3704	7
0	20847	3705	7
0	20858	3706	5
0	20869	3707	3
0	20910	3713	1
0	20917	3714	1
0	20955	3723	1
0	20971	3726	1
0	20981	3727	1
0	20994	3728	1
0	21005	3729	1
0	21073	3742	1
0	21080	3743	1
0	21089	3745	1
0	21100	3747	1
0	21114	3749	1
0	21134	3752	1
0	21144	3753	2
0	21161	3755	1
0	21187	3759	1
0	21202	3763	1
0	21213	3764	1
0	21222	3765	2
0	21242	3767	1
0	21253	3768	2
0	21262	3769	2
0	21282	3775	1
0	21298	3777	1
0	21325	3784	1
0	21339	3787	1
0	21354	3790	1
0	21438	3803	1
0	21450	3805	1
0	21476	3813	1
0	21510	3820	1
0	21544	3826	1
0	21554	3827	1
0	21574	3832	1
0	21585	3833	2
0	21597	3834	2
0	21642	3840	1
0	21652	3841	1
0	21680	3845	1
0	21687	3846	1
0	21696	3848	1
0	21703	3849	1
0	21716	3852	1
0	21737	3856	1
0	21761	3860	1
0	21767	3861	2
0	21783	3863	1
0	21835	3875	1
0	21848	3878	1
0	21862	3879	1
0	21914	3886	1
0	21977	3897	1
0	22012	3906	1
0	22021	3908	1
0	22047	3913	1
0	22061	3915	1
0	22084	3919	1
0	22161	3933	1
0	22172	3934	2
0	22191	3937	1
0	22202	3938	2
0	22217	3939	2
0	22227	3940	2
0	22237	3941	3
0	22248	3942	4
0	22260	3944	1
0	22269	3945	2
0	22278	3946	1
0	22289	3949	1
0	22296	3950	1
0	22316	3955	1
0	22364	3969	1
0	22377	3973	1
0	22388	3975	1
0	22400	3977	1
0	22417	3983	1
0	22446	3987	1
0	22459	3988	2
0	22470	3989	2
0	22480	3990	3
0	22491	3991	3
0	22522	3995	1
0	22534	3996	2
0	22548	3997	1
0	22587	4002	3
0	22610	4005	1
0	22643	4013	1
0	22651	4014	1
0	22657	4015	2
0	22673	4018	1
0	22698	4023	1
0	22711	4024	1
0	22723	4025	2
0	22733	4026	3
0	22741	4027	3
0	22790	4038	1
0	22808	4042	1
0	22820	4044	1
0	22829	4046	1
0	22849	4051	1
0	22891	4058	1
0	22900	4059	2
0	22916	4062	1
0	22930	4064	1
0	22937	4065	1
0	22957	4068	1
0	22969	4069	1
0	22995	4072	1
0	23004	4073	2
0	23010	4074	3
0	23028	4077	1
0	23047	4080	1
0	23060	4084	1
0	23071	4085	1
0	23093	4090	6
0	23100	4091	1
0	23107	4092	1
0	23132	4102	1
0	23142	4103	1
0	23151	4104	1
0	23170	4111	1
0	23180	4112	1
0	23189	4113	1
0	23230	4122	1
0	23265	4127	1
0	23276	4128	2
0	23291	4130	1
0	23301	4131	2
0	23310	4132	2
0	23330	4136	1
0	23339	4138	1
0	23383	4146	1
0	23420	4152	1
0	23463	4160	1
0	23473	4162	1
0	23482	4163	2
0	23495	4164	1
0	23506	4165	2
0	23515	4166	1
0	23524	4168	1
0	23542	4172	1
0	23553	4174	1
0	23563	4175	1
0	23589	4179	1
0	23618	4184	6
0	23627	4185	6
0	23639	4186	1
0	23650	4188	1
0	23659	4190	1
0	23677	4194	1
0	23699	4197	1
0	23746	4203	1
0	23765	4205	1
0	23789	4208	1
0	23834	4214	1
0	23864	4219	1
0	23878	4222	1
0	23896	4227	1
0	23941	4236	1
0	23977	4249	1
0	23987	4251	1
0	23997	4252	2
0	24008	4253	1
0	24032	4259	1
0	24042	4261	1
0	24048	4262	2
0	24062	4266	1
0	24069	4267	2
0	24076	4268	2
0	24082	4269	2
0	24089	4270	1
0	24102	4273	1
0	24114	4275	1
0	24148	4282	1
0	24214	4298	1
0	24225	4299	1
0	24235	4300	1
0	24242	4301	1
0	24249	4302	1
0	24276	4309	1
0	24288	4310	1
0	24304	4312	1
0	24322	4314	1
0	24332	4315	2
0	24347	4317	1
0	24360	4318	1
0	24371	4319	1
0	24389	4321	1
0	24408	4323	1
0	24426	4328	1
0	24447	4331	1
0	24487	4346	1
0	24563	4357	1
0	24585	4360	1
0	24592	4361	1
0	24610	4367	1
0	24617	4368	2
0	24623	4369	2
0	24632	4371	1
0	24648	4374	1
0	24693	4381	1
0	24730	4386	1
0	24759	4392	1
0	24766	4393	1
0	24787	4398	1
0	24803	4401	1
0	24823	4406	1
0	24834	4408	1
0	24844	4409	1
0	24855	4412	1
0	24868	4416	1
0	24879	4418	1
0	24919	4425	1
0	24956	4435	1
0	24971	4437	1
0	24977	4438	2
0	24987	4439	1
0	24996	4440	1
0	25014	4444	1
0	25030	4447	1
0	25077	4457	1
0	25120	4467	1
0	25146	4474	1
0	25158	4476	1
0	25185	4482	1
0	25192	4483	1
0	25210	4486	1
0	25227	4489	1
0	25237	4490	2
0	25247	4491	2
0	25255	4492	2
0	25264	4494	1
0	25280	4497	1
0	25289	4499	1
0	25316	4504	5
0	25322	4505	5
0	25331	4507	1
0	25338	4508	1
0	25361	4512	1
0	25370	4514	1
0	25450	4534	1
0	25494	4540	1
0	25500	4541	2
0	25508	4542	3
0	25518	4543	2
0	25526	4544	3
0	25533	4545	3
0	25543	4546	2
0	25551	4547	2
0	25567	4549	1
0	25579	4550	1
0	25625	4559	1
0	25632	4560	1
0	25653	4564	1
0	25664	4565	1
0	25755	4585	1
0	25764	4586	2
0	25846	4600	1
0	25875	4604	1
0	25883	4605	1
0	25889	4606	2
0	25899	4607	1
0	25967	4620	1
0	25996	4627	1
0	26017	4632	1
0	26042	4637	1
0	26082	4647	1
0	26104	4653	1
0	26111	4654	1
0	26127	4656	1
0	26143	4660	1
0	26156	4664	1
0	26174	4668	1
0	26181	4669	1
0	26202	4672	1
0	26213	4674	1
0	26244	4683	1
0	26309	4698	1
0	26316	4699	1
0	26341	4702	1
0	26354	4703	2
0	26378	4706	1
0	26404	4713	1
0	26414	4714	1
0	26435	4721	1
0	26458	4727	1
0	26464	4728	2
0	26501	4735	1
0	26512	4736	1
0	26525	4738	1
0	26531	4739	2
0	26575	4746	1
0	26617	4752	1
0	26680	4766	1
0	26720	4771	1
0	26731	4772	1
0	26771	4781	1
0	26795	4788	1
0	26810	4792	1
0	26822	4793	1
0	26844	4797	1
0	26850	4798	2
0	26879	4807	1
0	26886	4808	2
0	26892	4809	2
0	26899	4810	1
0	26946	4817	1
0	26957	4818	1
0	26995	4828	1
0	27002	4829	1
0	27017	4834	1
0	27024	4835	1
0	27034	4837	1
0	27040	4838	2
0	27049	4840	1
0	27095	4850	1
0	27105	4851	2
0	27116	4852	2
0	27125	4853	1
0	27216	4866	1
0	27224	4867	1
0	27230	4868	2
0	27237	4869	1
0	27260	4873	1
0	27285	4880	1
0	27325	4889	1
0	27338	4890	1
0	27350	4891	1
0	27366	4893	1
0	27405	4905	1
0	27417	4907	1
0	27426	4908	2
0	27437	4910	1
0	27450	4911	1
0	27463	4912	2
0	27478	4913	2
0	27488	4914	3
0	27503	4915	1
0	27521	4917	1
0	27531	4918	2
0	27555	4921	1
0	27573	4924	1
0	27598	4928	1
0	27611	4929	1
0	27627	4931	1
0	27637	4933	1
0	27646	4934	2
0	27678	4939	1
0	27694	4943	1
0	27712	4946	1
0	27745	4951	1
0	27755	4952	2
0	27761	4953	2
0	27783	4959	1
0	27814	4964	1
0	27833	4966	1
0	27843	4967	2
0	27853	4968	3
0	27859	4969	2
0	27870	4970	1
0	27883	4971	1
0	27900	4973	1
0	27937	4980	1
0	27944	4981	2
0	27950	4982	2
0	27957	4983	1
0	27974	4988	1
0	27995	4992	1
0	28029	4997	1
0	28040	4998	1
0	28051	4999	1
1	2119	403	1
1	2119	403	0
1	2188	416	1
1	2188	416	0
1	2221	420	1
1	2221	420	0
1	2222	420	1
1	2232	421	0
1	2239	422	1
1	2243	422	0
1	2256	424	1
1	2256	424	0
1	2261	425	1
1	2262	425	2
1	2264	425	1
1	2270	426	0
1	2279	428	1
1	2279	428	0
1	2299	434	1
1	2299	434	0
1	2300	434	1
1	2311	435	0
1	2354	448	1
1	2354	448	0
1	2380	456	1
1	2380	456	0
1	2385	457	1
1	2387	457	0
1	2392	458	1
1	2394	458	0
1	2410	462	1
1	2410	462	0
1	2424	464	1
1	2424	464	0
1	2448	470	1
1	2448	470	0
1	2449	470	1
1	2464	475	0
1	2472	476	1
1	2476	476	0
1	2485	477	1
1	2488	477	0
1	2497	478	1
1	2500	478	0
1	2545	484	1
1	2545	484	0
1	2562	489	1
1	2562	489	0
1	2623	497	1
1	2623	497	0
1	2634	498	1
1	2636	498	0
1	2645	499	1
1	2647	499	0
1	2695	509	1
1	2695	509	0
1	2747	519	1
1	2747	519	0
1	2755	520	1
1	2758	520	0
1	2776	522	1
1	2776	522	0
1	2798	525	1
1	2798	525	0
1	2843	537	1
1	2843	537	0
1	2854	540	1
1	2854	540	0
1	2870	543	1
1	2870	543	0
1	2898	548	1
1	2898	548	0
1	2905	549	1
1	2908	549	0
1	2944	555	1
1	2944	555	0
1	2963	558	1
1	2963	558	0
1	2990	563	1
1	2990	563	0
1	3017	569	1
1	3017	569	0
1	3052	574	1
1	3052	574	0
1	3061	576	1
1	3061	576	0
1	3079	580	1
1	3079	580	0
1	3110	588	1
1	3110	588	0
1	3121	591	1
1	3121	591	0
1	3130	592	1
1	3133	592	0
1	3156	596	1
1	3156	596	0
1	3157	596	1
1	3190	601	0
1	3197	602	1
1	3199	602	0
1	3217	606	1
1	3217	606	0
1	3222	607	1
1	3224	607	0
1	3251	611	1
1	3251	611	0
1	3284	615	1
1	3284	615	0
1	3310	620	1
1	3310	620	0
1	3318	621	1
1	3321	621	0
1	3352	631	1
1	3352	631	0
1	3353	631	1
1	3359	632	0
1	3364	633	1
1	3365	633	2
1	3368	633	1
1	3380	634	0
1	3409	638	1
1	3409	638	0
1	3428	640	1
1	3428	640	0
1	3444	642	1
1	3444	642	0
1	3467	646	1
1	3467	646	0
1	3479	648	1
1	3479	648	0
1	3490	650	1
1	3490	650	0
1	3504	652	1
1	3504	652	0
1	3505	652	1
1	3515	653	0
1	3532	656	1
1	3532	656	0
1	3533	656	1
1	3540	657	0
1	3547	658	1
1	3548	658	2
1	3552	658	1
1	3559	659	0
1	3566	660	1
1	3571	660	0
1	3578	661	1
1	3579	661	2
1	3583	661	1
1	3589	662	0
1	3598	664	1
1	3598	664	0
1	3603	665	1
1	3605	665	0
1	3610	666	1
1	3613	666	0
1	3625	668	1
1	3628	669	2
1	3642	671	1
1	3643	671	2
1	3651	672	1
1	3657	673	0
1	3662	674	1
1	3664	674	0
1	3673	676	1
1	3673	676	0
1	3691	680	1
1	3691	680	0
1	3696	681	1
1	3698	681	0
1	3718	687	1
1	3718	687	0
1	3719	687	1
1	3731	688	0
1	3746	690	1
1	3746	690	0
1	3778	701	1
1	3778	701	0
1	3787	703	1
1	3787	703	0
1	3792	704	1
1	3794	704	0
1	3799	705	1
1	3800	705	2
1	3802	705	1
1	3810	706	0
1	3825	708	1
1	3825	708	0
1	3832	709	1
1	3834	709	0
1	3839	710	1
1	3840	710	2
1	3845	710	1
1	3855	711	0
1	3893	716	1
1	3893	716	0
1	3902	717	1
1	3904	717	0
1	3921	720	1
1	3921	720	0
1	3930	722	1
1	3930	722	0
1	3943	726	1
1	3943	726	0
1	3944	726	1
1	3950	727	0
1	3955	728	1
1	3957	728	0
1	3962	729	1
1	3964	729	0
1	3975	732	1
1	3975	732	0
1	3976	732	1
1	3984	733	2
1	3986	733	1
1	3995	734	0
1	4007	736	1
1	4010	737	2
1	4019	739	1
1	4020	739	2
1	4027	740	3
1	4028	740	4
1	4030	740	3
1	4036	741	2
1	4042	742	1
1	4049	743	0
1	4056	744	1
1	4060	744	0
1	4072	746	1
1	4072	746	0
1	4106	752	1
1	4106	752	0
1	4120	755	1
1	4120	755	0
1	4134	757	1
1	4134	757	0
1	4141	758	1
1	4143	758	0
1	4164	762	1
1	4164	762	0
1	4171	763	1
1	4173	763	0
1	4186	765	1
1	4186	765	0
1	4201	767	1
1	4201	767	0
1	4202	767	1
1	4211	768	0
1	4218	769	1
1	4222	769	0
1	4237	771	1
1	4237	771	0
1	4238	771	1
1	4248	772	0
1	4281	782	1
1	4281	782	0
1	4295	784	1
1	4295	784	0
1	4349	792	1
1	4349	792	0
1	4360	794	1
1	4360	794	0
1	4369	796	1
1	4369	796	0
1	4370	796	1
1	4376	797	0
1	4381	798	1
1	4383	798	0
1	4392	800	1
1	4392	800	0
1	4397	801	1
1	4401	801	0
1	4416	803	1
1	4416	803	0
1	4436	807	1
1	4436	807	0
1	4461	811	1
1	4470	812	0
1	4471	812	1
1	4478	813	2
1	4482	813	1
1	4492	814	0
1	4499	815	1
1	4500	815	2
1	4505	815	1
1	4517	816	0
1	4532	818	1
1	4532	818	0
1	4568	823	1
1	4568	823	0
1	4569	823	1
1	4570	823	2
1	4581	824	1
1	4592	825	0
1	4601	826	1
1	4603	826	0
1	4618	828	1
1	4618	828	0
1	4669	838	1
1	4669	838	0
1	4670	838	1
1	4677	839	0
1	4684	840	1
1	4689	840	0
1	4696	841	1
1	4700	841	0
1	4712	843	1
1	4712	843	0
1	4742	848	1
1	4742	848	0
1	4749	849	1
1	4751	849	0
1	4764	853	1
1	4764	853	0
1	4769	854	1
1	4773	854	0
1	4788	856	1
1	4788	856	0
1	4795	857	1
1	4797	857	0
1	4830	862	1
1	4830	862	0
1	4861	870	1
1	4861	870	0
1	4868	871	1
1	4870	871	0
1	4875	872	1
1	4877	872	0
1	4886	874	1
1	4886	874	0
1	4897	877	1
1	4897	877	0
1	4898	877	1
1	4909	878	0
1	4942	883	1
1	4942	883	0
1	4964	886	1
1	4970	888	0
1	4983	892	1
1	4983	892	0
1	4997	894	1
1	4997	894	0
1	4998	894	1
1	4999	894	2
1	5005	895	1
1	5011	896	0
1	5036	901	1
1	5036	901	0
1	5045	903	1
1	5045	903	0
1	5046	903	1
1	5052	904	0
1	5068	907	1
1	5068	907	0
1	5069	907	1
1	5078	908	0
1	5106	912	1
1	5106	912	0
1	5115	913	1
1	5119	913	0
1	5150	917	1
1	5150	917	0
1	5190	924	1
1	5190	924	0
1	5228	930	1
1	5228	930	0
1	5243	932	1
1	5243	932	0
1	5275	939	1
1	5275	939	0
1	5290	941	1
1	5290	941	0
1	5291	941	1
1	5303	942	0
1	5320	944	1
1	5320	944	0
1	5391	954	1
1	5391	954	0
1	5420	958	1
1	5420	958	0
1	5435	961	1
1	5435	961	0
1	5444	962	1
1	5446	962	0
1	5461	966	1
1	5461	966	0
1	5478	968	1
1	5478	968	0
1	5502	974	1
1	5502	974	0
1	5523	982	1
1	5523	982	0
1	5528	983	1
1	5530	983	0
1	5571	992	1
1	5571	992	0
1	5604	997	1
1	5604	997	0
1	5616	999	1
1	5616	999	0
1	5634	1002	1
1	5634	1002	0
1	5645	1005	1
1	5645	1005	0
1	5663	1009	1
1	5663	1009	0
1	5673	1010	1
1	5675	1010	0
1	5692	1012	1
1	5692	1012	0
1	5693	1012	1
1	5702	1013	0
1	5709	1014	1
1	5710	1014	2
1	5714	1014	1
1	5720	1015	0
1	5725	1016	1
1	5727	1016	0
1	5739	1018	1
1	5739	1018	0
1	5756	1023	1
1	5756	1023	0
1	5791	1030	1
1	5791	1030	0
1	5792	1030	1
1	5802	1031	0
1	5826	1034	1
1	5826	1034	0
1	5837	1036	1
1	5837	1036	0
1	5904	1047	1
1	5904	1047	0
1	5947	1061	1
1	5947	1061	0
1	5970	1066	1
1	5970	1066	0
1	5983	1069	1
1	5983	1069	0
1	6003	1074	1
1	6003	1074	0
1	6032	1086	1
1	6032	1086	0
1	6037	1087	1
1	6039	1087	0
1	6044	1088	1
1	6046	1088	0
1	6066	1094	1
1	6066	1094	0
1	6076	1095	1
1	6079	1095	0
1	6101	1099	1
1	6101	1099	0
1	6112	1101	1
1	6112	1101	0
1	6142	1106	1
1	6142	1106	0
1	6192	1123	1
1	6192	1123	0
1	6204	1125	1
1	6204	1125	0
1	6229	1134	1
1	6229	1134	0
1	6254	1139	1
1	6254	1139	0
1	6263	1140	1
1	6265	1140	0
1	6274	1141	1
1	6275	1141	2
1	6277	1141	1
1	6285	1142	0
1	6294	1144	1
1	6294	1144	0
1	6329	1149	1
1	6329	1149	0
1	6368	1161	1
1	6368	1161	0
1	6382	1163	1
1	6382	1163	0
1	6393	1166	1
1	6393	1166	0
1	6427	1173	1
1	6427	1173	0
1	6435	1174	1
1	6437	1174	0
1	6444	1175	1
1	6446	1175	0
1	6460	1178	1
1	6460	1178	0
1	6467	1179	1
1	6469	1179	0
1	6520	1193	1
1	6520	1193	0
1	6531	1195	1
1	6531	1195	0
1	6536	1196	1
1	6537	1196	2
1	6539	1196	1
1	6547	1197	0
1	6562	1199	1
1	6562	1199	0
1	6582	1203	1
1	6582	1203	0
1	6615	1209	1
1	6615	1209	0
1	6634	1211	1
1	6634	1211	0
1	6643	1212	1
1	6645	1212	0
1	6654	1213	1
1	6656	1213	0
1	6673	1216	1
1	6673	1216	0
1	6699	1224	1
1	6699	1224	0
1	6704	1225	1
1	6706	1225	0
1	6735	1230	1
1	6735	1230	0
1	6742	1231	1
1	6743	1231	2
1	6745	1231	1
1	6750	1232	2
1	6751	1232	3
1	6754	1232	2
1	6766	1233	1
1	6773	1234	2
1	6777	1234	1
1	6787	1235	0
1	6832	1242	1
1	6832	1242	0
1	6833	1242	1
1	6847	1243	0
1	6864	1245	1
1	6864	1245	0
1	6865	1245	1
1	6875	1246	0
1	6902	1250	1
1	6902	1250	0
1	6916	1253	1
1	6916	1253	0
1	6929	1256	1
1	6929	1256	0
1	6943	1258	1
1	6943	1258	0
1	6973	1263	1
1	6973	1263	0
1	6987	1266	1
1	6987	1266	0
1	7006	1268	1
1	7006	1268	0
1	7021	1272	1
1	7021	1272	0
1	7093	1286	1
1	7093	1286	0
1	7102	1287	1
1	7104	1287	0
1	7118	1289	1
1	7118	1289	0
1	7174	1296	1
1	7174	1296	0
1	7204	1302	1
1	7204	1302	0
1	7220	1305	1
1	7220	1305	0
1	7233	1308	1
1	7233	1308	0
1	7252	1313	1
1	7252	1313	0
1	7273	1318	1
1	7273	1318	0
1	7296	1321	1
1	7296	1321	0
1	7322	1324	1
1	7322	1324	0
1	7395	1340	1
1	7395	1340	0
1	7402	1341	1
1	7403	1341	2
1	7412	1343	3
1	7420	1345	2
1	7429	1346	1
1	7437	1347	0
1	7463	1355	1
1	7463	1355	0
1	7516	1362	1
1	7516	1362	0
1	7544	1369	1
1	7544	1369	0
1	7570	1372	1
1	7570	1372	0
1	7577	1373	1
1	7580	1373	0
1	7602	1377	1
1	7602	1377	0
1	7607	1378	1
1	7609	1378	0
1	7622	1382	1
1	7622	1382	0
1	7637	1387	1
1	7637	1387	0
1	7638	1387	1
1	7643	1388	2
1	7645	1388	1
1	7651	1389	0