version 3
run Experimentos-586-20260514-09:21:25-6355
attr configname Experimentos
attr datetime 20260514-09:21:25
attr datetimef 20260514-092125
attr experiment Experimentos
attr inifile TwoQueues.ini
attr iterationvars "$p=0.7, $q=0.2, $Y=20, $m=3"
attr iterationvarsd p=0.7/q=0.2/Y=20/m=3
attr iterationvarsf p=0.7,q=0.2,Y=20,m=3-
attr measurement "$p=0.7, $q=0.2, $Y=20, $m=3"
attr network TwoQueues
attr processid 6355
attr repetition 6
attr replication #6
attr resultdir results
attr runnumber 586
attr seedset 586
itervar Y 20
itervar m 3
itervar p 0.7
itervar q 0.2
config description "Barrido completo de parámetros Proyecto 12"
config **.source1.p 0.7
config **.source1.q 0.2
config **.source2.p 0.6
config **.source2.q 0.2
config **.serverWithMaintenance.Y 20
config **.serverWithMaintenance.m 3
config network TwoQueues
config cpu-time-limit 5000s
config sim-time-limit 5000s
config warmup-period 400s
config repeat 20
config output-scalar-file results/Experimentos-p=0.7,q=0.2,Y=20,m=3--#6.sca
config output-vector-file results/Experimentos-p=0.7,q=0.2,Y=20,m=3--#6.vec
config **.vector-recording true

vector 0 TwoQueues.serverWithMaintenance residenceTime2:vector ETV
attr recordingmode vector
attr source delay2
attr title "Residence Time Class 2"
vector 1 TwoQueues.queue2 queueLengthStats:vector ETV
attr recordingmode vector
attr source qlen
attr title "Average Queue Length"
vector 2 TwoQueues.queue1 queueLengthStats:vector ETV
attr recordingmode vector
attr source qlen
attr title "Average Queue Length"
vector 3 TwoQueues.server residenceTime1:vector ETV
attr recordingmode vector
attr source delay1
attr title "Residence Time Class 1"
vector 4 TwoQueues.server throughputStats1:vector ETV
attr recordingmode vector
attr source throughput1
attr title "Throughput Class 1"
0	2025	402	1
0	2117	423	1
0	2132	428	1
0	2155	432	1
0	2166	434	1
0	2184	439	1
0	2191	440	1
0	2200	442	1
0	2261	454	1
0	2291	459	1
0	2303	460	1
0	2339	465	1
0	2380	477	1
0	2396	479	1
0	2419	483	1
0	2429	484	1
0	2454	488	1
0	2489	492	3
0	2518	498	1
0	2525	499	1
0	2570	505	1
0	2580	506	2
0	2589	507	2
0	2598	508	1
0	2618	511	1
0	2642	514	1
0	2652	515	2
0	2662	516	3
0	2696	522	1
0	2716	527	1
0	2771	536	1
0	2786	538	1
0	2795	539	2
0	2804	541	1
0	2824	546	1
0	2840	549	1
0	2849	551	1
0	2893	559	1
0	2903	560	1
0	2910	561	1
0	2926	563	1
0	2997	576	1
0	3008	577	1
0	3014	578	2
0	3027	582	1
0	3051	589	1
0	3060	591	1
0	3070	593	1
0	3076	594	2
0	3086	595	1
0	3099	598	1
0	3144	609	1
0	3165	612	1
0	3216	619	1
0	3226	621	1
0	3232	622	2
0	3247	627	1
0	3267	631	3
0	3273	632	4
0	3286	636	1
0	3306	641	1
0	3313	642	1
0	3323	643	1
0	3338	647	1
0	3345	648	1
0	3380	653	1
0	3435	668	1
0	3502	689	1
0	3537	699	1
0	3618	717	1
0	3636	721	1
0	3676	731	1
0	3683	732	1
0	3740	744	1
0	3751	745	2
0	3814	760	1
0	3831	762	1
0	3862	766	3
0	3875	770	1
0	3904	776	1
0	3914	777	1
0	3921	778	1
0	3948	785	1
0	3966	787	1
0	3986	793	1
0	4015	800	1
0	4022	801	1
0	4065	812	1
0	4074	813	2
0	4086	814	1
0	4097	816	1
0	4110	818	1
0	4124	819	2
0	4136	820	2
0	4147	821	1
0	4159	822	1
0	4199	827	1
0	4235	832	1
0	4246	833	2
0	4297	843	1
0	4308	846	1
0	4336	852	1
0	4342	853	2
0	4405	862	1
0	4420	866	1
0	4432	867	1
0	4476	875	1
0	4494	879	1
0	4511	884	1
0	4551	888	1
0	4587	893	1
0	4597	894	2
0	4648	902	1
0	4664	904	1
0	4681	906	1
0	4690	907	2
0	4697	908	1
0	4813	929	1
0	4829	931	1
0	4875	941	1
0	4881	942	2
0	4938	958	1
0	4984	971	1
0	5007	975	1
0	5032	979	1
0	5062	984	1
0	5079	986	1
0	5126	997	1
0	5147	1000	1
0	5180	1009	1
0	5193	1013	1
0	5252	1025	1
0	5280	1030	1
0	5301	1032	1
0	5395	1045	1
0	5404	1046	2
0	5462	1056	1
0	5490	1060	1
0	5511	1062	1
0	5545	1070	1
0	5578	1075	1
0	5585	1076	1
0	5596	1077	1
0	5607	1078	2
0	5630	1081	1
0	5682	1093	1
0	5722	1098	1
0	5742	1100	1
0	5764	1103	1
0	5777	1105	1
0	5809	1112	1
0	5844	1119	1
0	5896	1127	1
0	5914	1129	1
0	5934	1133	1
0	5977	1142	1
0	5988	1144	1
0	6018	1148	4
0	6034	1150	1
0	6068	1158	1
0	6088	1162	1
0	6121	1171	1
0	6139	1173	1
0	6164	1176	1
0	6207	1182	1
0	6218	1183	1
0	6301	1201	1
0	6316	1203	1
0	6322	1204	2
0	6333	1207	1
0	6348	1209	1
0	6354	1210	2
0	6374	1214	1
0	6387	1215	1
0	6407	1219	1
0	6432	1224	1
0	6484	1231	1
0	6516	1235	4
0	6522	1236	3
0	6533	1239	1
0	6570	1245	1
0	6581	1247	1
0	6609	1252	1
0	6619	1253	2
0	6637	1255	1
0	6677	1260	1
0	6707	1265	1
0	6734	1272	1
0	6750	1275	1
0	6759	1277	1
0	6768	1279	1
0	6788	1284	1
0	6799	1287	1
0	6821	1293	1
0	6832	1295	1
0	6844	1297	1
0	6904	1307	1
0	6920	1311	4
0	6926	1312	4
0	6932	1313	4
0	6949	1318	1
0	7003	1326	1
0	7037	1332	1
0	7058	1334	1
0	7070	1335	2
0	7094	1339	1
0	7116	1345	1
0	7134	1348	1
0	7144	1349	1
0	7217	1361	1
0	7228	1362	1
0	7250	1366	1
0	7260	1367	1
0	7276	1369	1
0	7288	1371	1
0	7304	1374	1
0	7324	1378	1
0	7357	1382	2
0	7363	1383	2
0	7410	1390	1
0	7430	1393	1
0	7440	1394	1
0	7447	1395	1
0	7491	1404	1
0	7497	1405	2
0	7504	1406	1
0	7511	1407	1
0	7524	1410	1
0	7544	1416	1
0	7573	1422	1
0	7590	1426	1
0	7596	1427	2
0	7616	1432	1
0	7626	1433	1
0	7635	1434	1
0	7673	1442	1
0	7683	1443	1
0	7702	1447	2
0	7734	1453	1
0	7762	1461	1
0	7778	1465	1
0	7802	1471	1
0	7847	1481	1
0	7865	1485	1
0	7889	1488	1
0	7953	1497	1
0	7965	1498	1
0	7975	1499	2
0	7992	1501	1
0	8020	1507	1
0	8038	1510	1
0	8128	1525	1
0	8166	1539	1
0	8186	1543	1
0	8232	1552	1
0	8255	1557	1
0	8264	1558	2
0	8285	1562	4
0	8295	1563	1
0	8306	1564	1
0	8318	1565	2
0	8338	1568	1
0	8349	1569	1
0	8379	1575	1
0	8424	1583	1
0	8494	1594	1
0	8511	1596	1
0	8528	1598	1
0	8564	1604	1
0	8588	1610	1
0	8598	1611	2
0	8677	1623	1
0	8691	1626	1
0	8724	1634	1
0	8769	1645	1
0	8776	1646	1
0	8785	1648	1
0	8799	1652	2
0	8836	1657	1
0	8855	1660	1
0	8877	1665	1
0	8887	1666	1
0	8909	1672	1
0	8934	1676	1
0	8944	1677	1
0	8978	1683	1
0	9060	1700	1
0	9067	1701	1
0	9094	1707	1
0	9122	1712	1
0	9131	1713	2
0	9157	1721	1
0	9189	1727	1
0	9209	1732	1
0	9219	1733	1
0	9230	1734	1
0	9236	1735	2
0	9249	1739	6
0	9306	1755	1
0	9357	1763	1
0	9367	1764	1
0	9376	1765	1
0	9400	1772	1
0	9479	1783	1
0	9495	1787	1
0	9515	1792	1
0	9576	1805	1
0	9607	1813	1
0	9635	1822	1
0	9686	1834	1
0	9719	1839	1
0	9738	1841	1
0	9748	1842	2
0	9829	1859	1
0	9845	1862	1
0	9880	1871	1
0	9896	1873	1
0	9929	1877	1
0	9938	1878	2
0	9947	1880	1
0	9990	1894	1
0	10006	1897	1
0	10016	1898	1
0	10029	1900	1
0	10063	1905	1
0	10069	1906	2
0	10079	1907	1
0	10088	1908	1
0	10122	1915	1
0	10170	1924	1
0	10181	1925	1
0	10222	1935	1
0	10231	1937	1
0	10263	1947	1
0	10275	1949	1
0	10331	1962	1
0	10340	1964	1
0	10356	1968	2
0	10400	1980	1
0	10421	1984	1
0	10441	1988	1
0	10469	1993	1
0	10494	1997	1
0	10520	2005	1
0	10537	2007	1
0	10560	2011	1
0	10586	2020	1
0	10611	2025	1
0	10630	2027	1
0	10692	2043	1
0	10705	2044	1
0	10734	2048	1
0	10774	2054	1
0	10813	2059	1
0	10854	2069	1
0	10884	2073	1
0	10904	2076	1
0	10937	2080	4
0	10954	2082	1
0	10986	2086	1
0	10997	2087	1
0	11027	2093	1
0	11076	2101	1
0	11118	2108	1
0	11141	2113	1
0	11151	2114	2
0	11191	2119	1
0	11203	2120	1
0	11220	2122	1
0	11230	2123	1
0	11243	2127	1
0	11250	2128	1
0	11271	2135	1
0	11300	2140	1
0	11306	2141	2
0	11356	2148	1
0	11362	2149	2
0	11427	2160	1
0	11469	2172	1
0	11479	2174	1
0	11488	2175	2
0	11497	2176	1
0	11530	2185	1
0	11542	2186	1
0	11573	2190	1
0	11595	2195	1
0	11636	2201	1
0	11686	2208	1
0	11695	2210	1
0	11703	2211	1
0	11712	2212	2
0	11737	2215	1
0	11761	2223	1
0	11772	2225	1
0	11786	2228	1
0	11801	2233	1
0	11830	2240	1
0	11844	2244	1
0	11932	2258	1
0	11964	2265	1
0	11973	2266	2
0	11984	2269	1
0	12005	2277	1
0	12018	2280	1
0	12042	2283	1
0	12071	2289	1
0	12083	2291	1
0	12094	2293	1
0	12105	2294	1
0	12111	2295	2
0	12150	2302	1
0	12177	2306	1
0	12189	2307	2
0	12206	2309	1
0	12225	2311	1
0	12286	2325	1
0	12356	2335	1
0	12380	2339	5
0	12420	2346	1
0	12485	2357	1
0	12527	2364	1
0	12545	2368	1
0	12557	2370	1
0	12612	2380	1
0	12619	2381	1
0	12628	2383	1
0	12638	2384	1
0	12672	2390	1
0	12681	2392	1
0	12712	2399	1
0	12737	2404	1
0	12769	2410	1
0	12813	2416	1
0	12842	2419	1
0	12871	2423	1
0	12960	2438	1
0	12970	2439	1
0	12997	2443	1
0	13009	2444	1
0	13062	2451	1
0	13078	2455	1
0	13087	2457	1
0	13098	2460	1
0	13162	2477	1
0	13206	2488	1
0	13241	2496	1
0	13251	2497	2
0	13269	2500	1
0	13275	2501	2
0	13286	2504	1
0	13295	2506	1
0	13311	2509	1
0	13322	2512	1
0	13338	2515	1
0	13361	2520	1
0	13488	2549	1
0	13518	2555	1
0	13578	2567	1
0	13585	2568	1
0	13596	2571	1
0	13708	2597	1
0	13718	2599	1
0	13724	2600	2
0	13731	2601	1
0	13738	2602	1
0	13748	2604	1
0	13754	2605	2
0	13792	2613	1
0	13805	2614	1
0	13823	2616	1
0	13851	2619	1
0	13923	2636	1
0	13935	2637	1
0	13967	2644	1
0	14025	2657	1
0	14039	2659	1
0	14051	2661	1
0	14065	2665	3
0	14119	2677	1
0	14161	2688	1
0	14170	2690	1
0	14213	2698	1
0	14244	2702	1
0	14291	2708	1
0	14353	2725	1
0	14362	2726	2
0	14370	2727	1
0	14376	2728	2
0	14393	2734	1
0	14411	2738	1
0	14459	2747	1
0	14466	2748	1
0	14475	2750	1
0	14507	2760	1
0	14534	2766	1
0	14569	2772	1
0	14588	2778	1
0	14610	2782	4
0	14733	2811	1
0	14744	2814	1
0	14752	2815	1
0	14758	2816	2
0	14771	2820	1
0	14810	2831	1
0	14831	2834	1
0	14855	2839	1
0	14866	2840	2
0	14928	2855	1
0	14960	2864	1
0	14966	2865	2
0	14973	2866	1
0	15010	2872	1
0	15030	2877	1
0	15041	2878	1
0	15135	2891	1
0	15154	2894	1
0	15204	2903	1
0	15226	2907	1
0	15237	2910	1
0	15268	2918	1
0	15283	2923	1
0	15300	2929	1
0	15311	2932	1
0	15355	2944	1
0	15366	2947	1
0	15377	2950	1
0	15410	2956	1
0	15419	2957	2
0	15449	2962	1
0	15460	2963	1
0	15470	2964	1
0	15480	2966	1
0	15487	2967	2
0	15496	2968	2
0	15505	2969	1
0	15521	2971	1
0	15555	2975	1
0	15582	2979	5
0	15588	2980	3
0	15596	2981	1
0	15602	2982	2
0	15657	2997	1
0	15664	2998	1
0	15677	3002	1
0	15714	3008	1
0	15728	3010	1
0	15735	3011	1
0	15845	3030	1
0	15857	3032	1
0	15884	3038	1
0	15893	3040	1
0	15915	3046	1
0	15934	3052	1
0	15944	3053	1
0	15980	3061	1
0	16055	3072	1
0	16080	3076	1
0	16106	3080	2
0	16134	3085	1
0	16141	3086	1
0	16168	3092	1
0	16177	3094	1
0	16190	3096	1
0	16200	3097	2
0	16235	3108	1
0	16245	3110	1
0	16251	3111	2
0	16290	3118	1
0	16320	3124	1
0	16331	3125	2
0	16353	3128	1
0	16372	3131	1
0	16378	3132	2
0	16406	3137	1
0	16415	3138	2
0	16436	3141	1
0	16466	3150	1
0	16523	3164	1
0	16625	3185	1
0	16634	3187	1
0	16662	3192	1
0	16672	3193	2
0	16678	3194	2
0	16691	3198	1
0	16706	3203	1
0	16720	3207	1
0	16730	3208	2
0	16741	3209	2
0	16752	3211	1
0	16775	3216	1
0	16784	3217	2
0	16816	3222	1
0	16856	3228	1
0	16863	3229	1
0	16896	3238	1
0	16930	3246	1
0	16955	3249	1
0	16972	3253	2
0	16991	3256	1
0	17007	3258	1
0	17018	3261	1
0	17033	3264	1
0	17066	3269	1
0	17130	3282	1
0	17141	3283	1
0	17194	3291	1
0	17244	3298	1
0	17294	3309	1
0	17305	3312	1
0	17353	3321	1
0	17363	3322	2
0	17396	3326	1
0	17438	3332	1
0	17449	3333	1
0	17477	3337	1
0	17491	3340	1
0	17566	3353	1
0	17609	3359	1
0	17626	3361	1
0	17643	3363	1
0	17685	3374	1
0	17749	3385	1
0	17759	3386	1
0	17766	3387	1
0	17819	3400	1
0	17831	3402	1
0	17848	3405	1
0	17854	3406	2
0	17865	3408	1
0	17879	3410	1
0	17908	3414	1
0	17933	3418	1
0	17958	3423	1
0	17975	3425	1
0	18002	3430	1
0	18013	3433	1
0	18025	3434	1
0	18129	3452	1
0	18140	3453	1
0	18146	3454	2
0	18211	3463	1
0	18228	3465	1
0	18260	3476	1
0	18270	3477	1
0	18283	3480	1
0	18291	3481	1
0	18297	3482	2
0	18308	3483	1
0	18343	3490	1
0	18387	3497	1
0	18405	3501	1
0	18423	3505	1
0	18431	3506	1
0	18437	3507	2
0	18468	3513	1
0	18549	3528	1
0	18570	3531	1
0	18600	3535	3
0	18606	3536	2
0	18672	3559	1
0	18690	3563	1
0	18721	3570	1
0	18731	3571	1
0	18742	3573	1
0	18776	3581	1
0	18799	3584	1
0	18818	3587	1
0	18860	3597	1
0	18880	3603	1
0	18908	3611	1
0	18918	3612	1
0	18926	3613	1
0	18933	3614	2
0	18943	3615	2
0	18952	3616	2
0	18962	3617	2
0	18973	3618	2
0	18996	3623	1
0	19016	3628	1
0	19064	3637	1
0	19071	3638	1
0	19080	3640	1
0	19101	3647	1
0	19111	3648	1
0	19153	3657	1
0	19185	3661	1
0	19220	3667	1
0	19227	3668	2
0	19233	3669	2
0	19266	3677	1
0	19309	3692	1
0	19326	3695	1
0	19333	3696	2
0	19339	3697	2
0	19357	3699	1
0	19393	3704	1
0	19478	3724	1
0	19499	3729	1
0	19512	3732	1
0	19524	3734	1
0	19533	3736	1
0	19555	3742	1
0	19616	3755	1
0	19634	3759	1
0	19685	3767	1
0	19694	3769	1
0	19741	3777	1
0	19747	3778	2
0	19763	3782	1
0	19782	3784	1
0	19805	3789	1
0	19811	3790	2
0	19825	3793	1
0	19861	3799	1
0	19877	3801	1
0	19888	3802	1
0	19900	3803	1
0	19923	3808	1
0	19944	3811	1
0	20016	3827	1
0	20054	3836	1
0	20061	3837	1
0	20068	3838	1
0	20082	3840	1
0	20094	3841	1
0	20106	3842	1
0	20116	3843	2
0	20178	3858	1
0	20195	3860	1
0	20218	3863	1
0	20250	3867	1
0	20262	3868	1
0	20273	3869	2
0	20373	3895	1
0	20379	3896	2
0	20386	3897	1
0	20397	3900	1
0	20421	3904	1
0	20457	3913	1
0	20489	3920	1
0	20496	3921	2
0	20503	3922	2
0	20509	3923	2
0	20520	3924	1
0	20528	3925	2
0	20535	3926	1
0	20572	3932	1
0	20583	3935	1
0	20594	3938	1
0	20666	3953	1
0	20685	3956	1
0	20849	3998	1
0	20865	4001	1
0	20906	4010	1
0	20942	4016	1
0	20979	4028	1
0	21002	4032	1
0	21030	4037	1
0	21047	4039	1
0	21067	4044	1
0	21082	4045	1
0	21094	4046	2
0	21107	4047	2
0	21118	4048	1
0	21182	4057	1
0	21220	4062	1
0	21261	4069	1
0	21273	4070	1
0	21315	4078	1
0	21409	4099	1
0	21428	4102	1
0	21439	4104	1
0	21445	4105	2
0	21451	4106	3
0	21475	4109	1
0	21504	4115	1
0	21593	4141	1
0	21612	4145	1
0	21624	4147	1
0	21645	4154	1
0	21684	4162	1
0	21694	4163	1
0	21725	4170	1
0	21774	4182	1
0	21797	4185	1
0	21862	4195	1
0	21894	4201	1
0	21908	4204	1
0	21922	4206	1
0	21958	4214	1
0	21965	4215	1
0	21980	4219	1
0	21994	4222	1
0	22002	4223	1
0	22008	4224	2
0	22060	4238	1
0	22078	4240	1
0	22102	4244	3
0	22111	4245	3
0	22131	4250	1
0	22138	4251	1
0	22154	4253	1
0	22164	4254	1
0	22185	4258	1
0	22198	4259	2
0	22234	4264	1
0	22288	4276	1
0	22339	4284	1
0	22361	4290	1
0	22368	4291	1
0	22402	4298	1
0	22420	4301	1
0	22436	4305	1
0	22448	4308	1
0	22454	4309	2
0	22539	4322	1
0	22563	4325	1
0	22607	4332	1
0	22613	4333	2
0	22650	4340	1
0	22681	4347	1
0	22715	4354	1
0	22722	4355	1
0	22760	4364	1
0	22776	4367	1
0	22790	4369	1
0	22835	4379	1
0	22865	4383	1
0	22882	4385	1
0	22891	4387	1
0	23033	4420	1
0	23042	4421	2
0	23064	4426	1
0	23071	4427	1
0	23082	4428	1
0	23090	4429	2
0	23105	4433	1
0	23126	4439	1
0	23139	4443	1
0	23172	4448	1
0	23195	4451	1
0	23225	4456	1
0	23296	4470	1
0	23320	4475	1
0	23336	4478	1
0	23359	4482	1
0	23371	4484	1
0	23408	4492	1
0	23414	4493	2
0	23466	4504	1
0	23477	4507	1
0	23490	4510	1
0	23496	4511	2
0	23502	4512	3
0	23532	4518	1
0	23550	4520	1
0	23568	4524	1
0	23586	4528	4
0	23592	4529	3
0	23613	4532	1
0	23629	4535	1
0	23663	4541	1
0	23681	4546	1
0	23735	4558	1
0	23742	4559	1
0	23758	4561	1
0	23770	4563	1
0	23800	4569	1
0	23818	4571	1
0	23849	4580	1
0	23860	4581	2
0	23871	4582	2
0	23931	4595	1
0	23949	4600	1
0	24008	4617	1
0	24037	4624	1
0	24066	4631	1
0	24080	4635	4
0	24110	4640	1
0	24117	4641	1
0	24124	4642	1
0	24136	4645	1
0	24145	4646	2
0	24158	4649	1
0	24192	4657	1
0	24201	4658	2
0	24254	4666	1
0	24282	4670	1
0	24296	4673	1
0	24331	4678	1
0	24396	4693	1
0	24403	4694	1
0	24469	4705	1
0	24500	4710	1
0	24512	4712	1
0	24541	4718	1
0	24550	4720	1
0	24577	4728	1
0	24588	4731	1
0	24615	4737	1
0	24649	4742	1
0	24687	4747	1
0	24704	4749	1
0	24719	4754	1
0	24754	4764	1
0	24768	4767	1
0	24804	4773	1
0	24823	4776	1
0	24833	4777	1
0	24885	4787	1
0	24910	4791	1
0	24931	4794	1
0	24955	4801	1
0	24998	4809	1
0	25024	4814	1
0	25055	4822	1
0	25148	4844	1
0	25180	4849	1
0	25198	4852	1
0	25208	4853	1
0	25225	4855	1
0	25237	4856	1
0	25246	4857	2
0	25253	4858	1
0	25290	4864	1
0	25310	4869	1
0	25325	4874	1
0	25332	4875	1
0	25339	4876	1
0	25346	4877	1
0	25382	4884	1
0	25409	4891	1
0	25438	4898	1
0	25469	4905	1
0	25499	4911	1
0	25517	4915	1
0	25553	4925	1
0	25568	4929	5
0	25588	4935	1
0	25598	4936	1
0	25612	4939	1
0	25618	4940	2
0	25631	4942	1
0	25642	4943	2
0	25653	4944	1
0	25687	4952	1
0	25706	4956	1
0	25712	4957	2
0	25721	4959	1
0	25731	4960	1
0	25741	4961	1
0	25747	4962	2
0	25762	4966	1
0	25818	4974	1
0	25843	4980	1
0	25875	4986	1
1	2021	401	1
1	2021	401	0
1	2113	422	1
1	2113	422	0
1	2128	427	1
1	2128	427	0
1	2149	431	1
1	2149	431	0
1	2160	433	1
1	2160	433	0
1	2180	438	1
1	2180	438	0
1	2185	439	1
1	2187	439	0
1	2196	441	1
1	2196	441	0
1	2254	453	1
1	2254	453	0
1	2285	458	1
1	2285	458	0
1	2293	459	1
1	2296	459	0
1	2332	464	1
1	2332	464	0
1	2376	476	1
1	2376	476	0
1	2388	478	1
1	2388	478	0
1	2413	482	1
1	2413	482	0
1	2421	483	1
1	2423	483	0
1	2447	487	1
1	2447	487	0
1	2465	489	1
1	2482	491	0
1	2512	497	1
1	2512	497	0
1	2519	498	1
1	2521	498	0
1	2562	504	1
1	2562	504	0
1	2563	504	1
1	2572	505	2
1	2574	505	1
1	2583	506	0
1	2590	507	1
1	2594	507	0
1	2610	510	1
1	2610	510	0
1	2634	513	1
1	2634	513	0
1	2635	513	1
1	2636	513	2
1	2646	514	1
1	2656	515	0
1	2690	521	1
1	2690	521	0
1	2712	526	1
1	2712	526	0
1	2763	535	1
1	2763	535	0
1	2779	537	1
1	2779	537	0
1	2780	537	1
1	2789	538	0
1	2800	540	1
1	2800	540	0
1	2820	545	1
1	2820	545	0
1	2836	548	1
1	2836	548	0
1	2845	550	1
1	2845	550	0
1	2886	558	1
1	2886	558	0
1	2895	559	1
1	2897	559	0
1	2904	560	1
1	2906	560	0
1	2919	562	1
1	2919	562	0
1	2991	575	1
1	2991	575	0
1	2999	576	1
1	3000	576	2
1	3002	576	1
1	3010	577	0
1	3023	581	1
1	3023	581	0
1	3047	588	1
1	3047	588	0
1	3056	590	1
1	3056	590	0
1	3065	592	1
1	3065	592	0
1	3066	592	1
1	3072	593	0
1	3077	594	1
1	3080	594	0
1	3095	597	1
1	3095	597	0
1	3137	608	1
1	3137	608	0
1	3158	611	1
1	3158	611	0
1	3210	618	1
1	3210	618	0
1	3221	620	1
1	3221	620	0
1	3222	620	1
1	3228	621	0
1	3243	626	1
1	3243	626	0
1	3251	628	1
1	3252	628	2
1	3263	630	1
1	3269	631	0
1	3282	635	1
1	3282	635	0
1	3302	640	1
1	3302	640	0
1	3307	641	1
1	3309	641	0
1	3314	642	1
1	3317	642	0
1	3334	646	1
1	3334	646	0
1	3339	647	1
1	3341	647	0
1	3374	652	1
1	3374	652	0
1	3429	667	1
1	3429	667	0
1	3498	688	1
1	3498	688	0
1	3533	698	1
1	3533	698	0
1	3614	716	1
1	3614	716	0
1	3630	720	1
1	3630	720	0
1	3672	730	1
1	3672	730	0
1	3677	731	1
1	3679	731	0
1	3731	743	1
1	3731	743	0
1	3732	743	1
1	3744	744	0
1	3810	759	1
1	3810	759	0
1	3822	761	1
1	3822	761	0
1	3840	763	1
1	3856	765	0
1	3871	769	1
1	3871	769	0
1	3896	775	1
1	3896	775	0
1	3906	776	1
1	3908	776	0
1	3915	777	1
1	3917	777	0
1	3939	784	1
1	3939	784	0
1	3959	786	1
1	3959	786	0
1	3982	792	1
1	3982	792	0
1	4011	799	1
1	4011	799	0
1	4016	800	1
1	4018	800	0
1	4060	811	1
1	4060	811	0
1	4061	811	1
1	4068	812	0
1	4075	813	1
1	4080	813	0
1	4093	815	1
1	4093	815	0
1	4102	817	1
1	4102	817	0
1	4103	817	1
1	4112	818	2
1	4117	818	1
1	4129	819	0
1	4138	820	1
1	4140	820	0
1	4149	821	1
1	4152	821	0
1	4192	826	1
1	4192	826	0
1	4226	831	1
1	4226	831	0
1	4227	831	1
1	4239	832	0
1	4293	842	1
1	4293	842	0
1	4304	845	1
1	4304	845	0
1	4331	851	1
1	4331	851	0
1	4332	851	1
1	4338	852	0
1	4399	861	1
1	4399	861	0
1	4414	865	1
1	4414	865	0
1	4422	866	1
1	4425	866	0
1	4472	874	1
1	4472	874	0
1	4488	878	1
1	4488	878	0
1	4505	883	1
1	4505	883	0
1	4544	887	1
1	4544	887	0
1	4579	892	1
1	4579	892	0
1	4580	892	1
1	4590	893	0
1	4641	901	1
1	4641	901	0
1	4658	903	1
1	4658	903	0
1	4672	905	1
1	4672	905	0
1	4673	905	1
1	4684	906	0
1	4691	907	1
1	4693	907	0
1	4806	928	1
1	4806	928	0
1	4823	930	1
1	4823	930	0
1	4870	940	1
1	4870	940	0
1	4871	940	1
1	4877	941	0
1	4934	957	1
1	4934	957	0
1	4980	970	1
1	4980	970	0
1	5001	974	1
1	5001	974	0
1	5025	978	1
1	5025	978	0
1	5055	983	1
1	5055	983	0
1	5073	985	1
1	5073	985	0
1	5122	996	1
1	5122	996	0
1	5141	999	1
1	5141	999	0
1	5174	1008	1
1	5174	1008	0
1	5189	1012	1
1	5189	1012	0
1	5246	1024	1
1	5246	1024	0
1	5271	1029	1
1	5271	1029	0
1	5291	1031	1
1	5291	1031	0
1	5387	1044	1
1	5387	1044	0
1	5388	1044	1
1	5398	1045	0
1	5454	1055	1
1	5454	1055	0
1	5482	1059	1
1	5482	1059	0
1	5504	1061	1
1	5504	1061	0
1	5539	1069	1
1	5539	1069	0
1	5574	1074	1
1	5574	1074	0
1	5579	1075	1
1	5581	1075	0
1	5586	1076	1
1	5587	1076	2
1	5590	1076	1
1	5601	1077	0
1	5624	1080	1
1	5624	1080	0
1	5675	1092	1
1	5675	1092	0
1	5714	1097	1
1	5714	1097	0
1	5735	1099	1
1	5735	1099	0
1	5758	1102	1
1	5758	1102	0
1	5769	1104	1
1	5769	1104	0
1	5803	1111	1
1	5803	1111	0
1	5837	1118	1
1	5837	1118	0
1	5887	1126	1
1	5887	1126	0
1	5907	1128	1
1	5907	1128	0
1	5930	1132	1
1	5930	1132	0
1	5971	1141	1
1	5971	1141	0
1	5982	1143	1
1	5982	1143	0
1	5990	1144	1
1	6011	1147	0
1	6028	1149	1
1	6028	1149	0
1	6061	1157	1
1	6061	1157	0
1	6084	1161	1
1	6084	1161	0
1	6117	1170	1
1	6117	1170	0
1	6131	1172	1
1	6131	1172	0
1	6156	1175	1
1	6156	1175	0
1	6199	1181	1
1	6199	1181	0
1	6209	1182	1
1	6211	1182	0
1	6297	1200	1
1	6297	1200	0
1	6309	1202	1
1	6309	1202	0
1	6310	1202	1
1	6318	1203	0
1	6329	1206	1
1	6329	1206	0
1	6341	1208	1
1	6341	1208	0
1	6342	1208	1
1	6350	1209	0
1	6367	1213	1
1	6367	1213	0
1	6376	1214	1
1	6380	1214	0
1	6403	1218	1
1	6403	1218	0
1	6423	1223	1
1	6423	1223	0
1	6475	1230	1
1	6475	1230	0
1	6486	1231	1
1	6502	1233	2
1	6510	1234	1
1	6518	1235	0
1	6529	1238	1
1	6529	1238	0
1	6564	1244	1
1	6564	1244	0
1	6575	1246	1
1	6575	1246	0
1	6600	1251	1
1	6600	1251	0
1	6601	1251	1
1	6612	1252	0
1	6629	1254	1
1	6629	1254	0
1	6669	1259	1
1	6669	1259	0
1	6700	1264	1
1	6700	1264	0
1	6728	1271	1
1	6728	1271	0
1	6744	1274	1
1	6744	1274	0
1	6755	1276	1
1	6755	1276	0
1	6764	1278	1
1	6764	1278	0
1	6784	1283	1
1	6784	1283	0
1	6795	1286	1
1	6795	1286	0
1	6817	1292	1
1	6817	1292	0
1	6826	1294	1
1	6826	1294	0
1	6840	1296	1
1	6840	1296	0
1	6900	1306	1
1	6900	1306	0
1	6905	1307	1
1	6909	1308	2
1	6912	1309	3
1	6916	1310	2
1	6922	1311	1
1	6928	1312	0
1	6943	1317	1
1	6943	1317	0
1	6997	1325	1
1	6997	1325	0
1	7031	1331	1
1	7031	1331	0
1	7049	1333	1
1	7049	1333	0
1	7050	1333	1
1	7063	1334	0
1	7090	1338	1
1	7090	1338	0
1	7112	1344	1
1	7112	1344	0
1	7128	1347	1
1	7128	1347	0
1	7136	1348	1
1	7138	1348	0
1	7210	1360	1
1	7210	1360	0
1	7219	1361	1
1	7221	1361	0
1	7244	1365	1
1	7244	1365	0
1	7252	1366	1
1	7254	1366	0
1	7268	1368	1
1	7268	1368	0
1	7284	1370	1
1	7284	1370	0
1	7298	1373	1
1	7298	1373	0
1	7318	1377	1
1	7318	1377	0
1	7342	1380	1
1	7350	1381	0
1	7351	1381	1
1	7359	1382	0
1	7403	1389	1
1	7403	1389	0
1	7424	1392	1
1	7424	1392	0
1	7432	1393	1
1	7434	1393	0
1	7441	1394	1
1	7443	1394	0
1	7486	1403	1
1	7486	1403	0
1	7487	1403	1
1	7493	1404	0
1	7498	1405	1
1	7500	1405	0
1	7505	1406	1
1	7507	1406	0
1	7518	1409	1
1	7518	1409	0
1	7540	1415	1
1	7540	1415	0
1	7567	1421	1
1	7567	1421	0
1	7585	1425	1
1	7585	1425	0
1	7586	1425	1
1	7592	1426	0
1	7612	1431	1
1	7612	1431	0
1	7617	1432	1
1	7620	1432	0
1	7627	1433	1
1	7631	1433	0
1	7666	1441	1
1	7666	1441	0
1	7675	1442	1
1	7677	1442	0
1	7694	1445	1
1	7698	1446	0
1	7728	1452	1
1	7728	1452	0
1	7756	1460	1
1	7756	1460	0
1	7774	1464	1
1	7774	1464	0
1	7796	1470	1
1	7796	1470	0
1	7841	1480	1
1	7841	1480	0
1	7859	1484	1
1	7859	1484	0
1	7883	1487	1
1	7883	1487	0
1	7943	1496	1
1	7943	1496	0
1	7955	1497	1
1	7956	1497	2
1	7958	1497	1
1	7968	1498	0
1	7985	1500	1
1	7985	1500	0
1	8013	1506	1
1	8013	1506	0
1	8034	1509	1
1	8034	1509	0
1	8124	1524	1
1	8124	1524	0
1	8160	1538	1
1	8160	1538	0
1	8180	1542	1
1	8180	1542	0
1	8228	1551	1
1	8228	1551	0
1	8248	1556	1
1	8248	1556	0
1	8249	1556	1
1	8258	1557	0
1	8265	1558	1
1	8278	1561	0
1	8287	1562	1
1	8289	1562	0
1	8296	1563	1
1	8297	1563	2
1	8300	1563	1
1	8312	1564	0
1	8331	1567	1
1	8331	1567	0
1	8340	1568	1
1	8342	1568	0
1	8375	1574	1
1	8375	1574	0
1	8416	1582	1
1	8416	1582	0
1	8485	1593	1
1	8485	1593	0
1	8504	1595	1
1	8504	1595	0
1	8521	1597	1
1	8521	1597	0
1	8556	1603	1
1	8556	1603	0
1	8580	1609	1
1	8580	1609	0
1	8581	1609	1
1	8591	1610	0
1	8669	1622	1
1	8669	1622	0
1	8687	1625	1
1	8687	1625	0
1	8718	1633	1
1	8718	1633	0
1	8765	1644	1
1	8765	1644	0
1	8770	1645	1
1	8772	1645	0
1	8781	1647	1
1	8781	1647	0
1	8791	1650	1
1	8795	1651	0
1	8829	1656	1
1	8829	1656	0
1	8851	1659	1
1	8851	1659	0
1	8869	1664	1
1	8869	1664	0
1	8879	1665	1
1	8881	1665	0
1	8905	1671	1
1	8905	1671	0
1	8926	1675	1
1	8926	1675	0
1	8936	1676	1
1	8938	1676	0
1	8971	1682	1
1	8971	1682	0
1	9056	1699	1
1	9056	1699	0
1	9061	1700	1
1	9063	1700	0
1	9090	1706	1
1	9090	1706	0
1	9115	1711	1
1	9115	1711	0
1	9116	1711	1
1	9125	1712	0
1	9153	1720	1
1	9153	1720	0
1	9183	1726	1
1	9183	1726	0
1	9205	1731	1
1	9205	1731	0
1	9210	1732	1
1	9213	1732	0
1	9220	1733	1
1	9221	1733	2
1	9222	1733	3
1	9226	1733	2
1	9232	1734	1
1	9245	1738	0
1	9300	1754	1
1	9300	1754	0
1	9353	1762	1
1	9353	1762	0
1	9358	1763	1
1	9361	1763	0
1	9368	1764	1
1	9372	1764	0
1	9396	1771	1
1	9396	1771	0
1	9471	1782	1
1	9471	1782	0
1	9491	1786	1
1	9491	1786	0
1	9511	1791	1
1	9511	1791	0
1	9572	1804	1
1	9572	1804	0
1	9601	1812	1
1	9601	1812	0
1	9631	1821	1
1	9631	1821	0
1	9680	1833	1
1	9680	1833	0
1	9715	1838	1
1	9715	1838	0
1	9728	1840	1
1	9728	1840	0
1	9729	1840	1
1	9741	1841	0
1	9823	1858	1
1	9823	1858	0
1	9839	1861	1
1	9839	1861	0
1	9874	1870	1
1	9874	1870	0
1	9888	1872	1
1	9888	1872	0
1	9920	1876	1
1	9920	1876	0
1	9921	1876	1
1	9932	1877	0
1	9943	1879	1
1	9943	1879	0
1	9984	1893	1
1	9984	1893	0
1	10000	1896	1
1	10000	1896	0
1	10007	1897	1
1	10010	1897	0
1	10023	1899	1
1	10023	1899	0
1	10056	1904	1
1	10056	1904	0
1	10057	1904	1
1	10065	1905	0
1	10070	1906	1
1	10073	1906	0
1	10080	1907	1
1	10084	1907	0
1	10118	1914	1
1	10118	1914	0
1	10160	1923	1
1	10160	1923	0
1	10172	1924	1
1	10174	1924	0
1	10218	1934	1
1	10218	1934	0
1	10227	1936	1
1	10227	1936	0
1	10257	1946	1
1	10257	1946	0
1	10271	1948	1
1	10271	1948	0
1	10327	1961	1
1	10327	1961	0
1	10336	1963	1
1	10336	1963	0
1	10346	1966	1
1	10350	1967	0
1	10394	1979	1
1	10394	1979	0
1	10417	1983	1
1	10417	1983	0
1	10434	1987	1
1	10434	1987	0
1	10465	1992	1
1	10465	1992	0
1	10486	1996	1
1	10486	1996	0
1	10514	2004	1
1	10514	2004	0
1	10531	2006	1
1	10531	2006	0
1	10556	2010	1
1	10556	2010	0
1	10579	2019	1
1	10579	2019	0
1	10604	2024	1
1	10604	2024	0
1	10623	2026	1
1	10623	2026	0
1	10683	2042	1
1	10683	2042	0
1	10694	2043	1
1	10698	2043	0
1	10728	2047	1
1	10728	2047	0
1	10767	2053	1
1	10767	2053	0
1	10806	2058	1
1	10806	2058	0
1	10846	2068	1
1	10846	2068	0
1	10878	2072	1
1	10878	2072	0
1	10891	2075	1
1	10891	2075	0
1	10906	2076	1
1	10930	2079	0
1	10947	2081	1
1	10947	2081	0
1	10978	2085	1
1	10978	2085	0
1	10988	2086	1
1	10990	2086	0
1	11021	2092	1
1	11021	2092	0
1	11070	2100	1
1	11070	2100	0
1	11110	2107	1
1	11110	2107	0
1	11136	2112	1
1	11136	2112	0
1	11137	2112	1
1	11145	2113	0
1	11183	2118	1
1	11183	2118	0
1	11193	2119	1
1	11196	2119	0
1	11213	2121	1
1	11213	2121	0
1	11222	2122	1
1	11224	2122	0
1	11239	2126	1
1	11239	2126	0
1	11244	2127	1
1	11246	2127	0
1	11265	2134	1
1	11265	2134	0
1	11293	2139	1
1	11293	2139	0
1	11294	2139	1
1	11302	2140	0
1	11349	2147	1
1	11349	2147	0
1	11350	2147	1
1	11358	2148	0
1	11419	2159	1
1	11419	2159	0
1	11465	2171	1
1	11465	2171	0
1	11474	2173	1
1	11474	2173	0
1	11475	2173	1
1	11482	2174	0
1	11489	2175	1
1	11493	2175	0
1	11526	2184	1
1	11526	2184	0
1	11531	2185	1
1	11536	2185	0
1	11564	2189	1
1	11564	2189	0
1	11591	2194	1
1	11591	2194	0
1	11627	2200	1
1	11627	2200	0
1	11680	2207	1
1	11680	2207	0
1	11691	2209	1
1	11691	2209	0
1	11696	2210	1
1	11697	2210	2
1	11699	2210	1
1	11706	2211	0
1	11730	2214	1
1	11730	2214	0
1	11757	2222	1
1	11757	2222	0
1	11766	2224	1
1	11766	2224	0
1	11782	2227	1
1	11782	2227	0
1	11797	2232	1
1	11797	2232	0
1	11824	2239	1
1	11824	2239	0
1	11840	2243	1
1	11840	2243	0
1	11926	2257	1
1	11926	2257	0
1	11955	2264	1
1	11955	2264	0
1	11956	2264	1
1	11967	2265	0
1	11980	2268	1
1	11980	2268	0
1	12001	2276	1
1	12001	2276	0
1	12012	2279	1
1	12012	2279	0
1	12036	2282	1
1	12036	2282	0
1	12065	2288	1
1	12065	2288	0
1	12079	2290	1
1	12079	2290	0
1	12088	2292	1
1	12088	2292	0
1	12096	2293	1
1	12097	2293	2
1	12099	2293	1
1	12107	2294	0
1	12146	2301	1
1	12146	2301	0
1	12169	2305	1
1	12169	2305	0
1	12170	2305	1
1	12182	2306	0
1	12199	2308	1
1	12199	2308	0
1	12218	2310	1
1	12218	2310	0
1	12282	2324	1
1	12282	2324	0
1	12348	2334	1
1	12348	2334	0
1	12349	2334	1
1	12376	2338	0
1	12412	2345	1
1	12412	2345	0
1	12475	2356	1
1	12475	2356	0
1	12519	2363	1
1	12519	2363	0
1	12539	2367	1
1	12539	2367	0
1	12553	2369	1
1	12553	2369	0
1	12606	2379	1
1	12606	2379	0
1	12613	2380	1
1	12615	2380	0
1	12624	2382	1
1	12624	2382	0
1	12629	2383	1
1	12632	2383	0
1	12668	2389	1
1	12668	2389	0
1	12677	2391	1
1	12677	2391	0
1	12706	2398	1
1	12706	2398	0
1	12730	2403	1
1	12730	2403	0
1	12762	2409	1
1	12762	2409	0
1	12804	2415	1
1	12804	2415	0
1	12834	2418	1
1	12834	2418	0
1	12864	2422	1
1	12864	2422	0
1	12953	2437	1
1	12953	2437	0
1	12962	2438	1
1	12964	2438	0
1	12989	2442	1
1	12989	2442	0
1	12999	2443	1
1	13002	2443	0
1	13055	2450	1
1	13055	2450	0
1	13074	2454	1
1	13074	2454	0
1	13083	2456	1
1	13083	2456	0
1	13094	2459	1
1	13094	2459	0
1	13158	2476	1
1	13158	2476	0
1	13200	2487	1
1	13200	2487	0
1	13236	2495	1
1	13236	2495	0
1	13237	2495	1
1	13245	2496	0
1	13264	2499	1
1	13264	2499	0
1	13265	2499	1
1	13271	2500	0
1	13282	2503	1
1	13282	2503	0
1	13291	2505	1
1	13291	2505	0
1	13305	2508	1
1	13305	2508	0
1	13318	2511	1
1	13318	2511	0
1	13332	2514	1
1	13332	2514	0
1	13352	2519	1
1	13352	2519	0
1	13481	2548	1
1	13481	2548	0
1	13514	2554	1
1	13514	2554	0
1	13572	2566	1
1	13572	2566	0
1	13579	2567	1
1	13581	2567	0
1	13592	2570	1
1	13592	2570	0
1	13704	2596	1
1	13704	2596	0
1	13713	2598	1
1	13713	2598	0
1	13714	2598	1
1	13720	2599	0
1	13725	2600	1
1	13727	2600	0
1	13732	2601	1
1	13734	2601	0
1	13743	2603	1
1	13743	2603	0
1	13744	2603	1
1	13750	2604	0
1	13784	2612	1
1	13784	2612	0
1	13794	2613	1
1	13798	2613	0
1	13815	2615	1
1	13815	2615	0
1	13844	2618	1
1	13844	2618	0
1	13916	2635	1
1	13916	2635	0
1	13925	2636	1
1	13928	2636	0
1	13963	2643	1
1	13963	2643	0
1	14017	2656	1
1	14017	2656	0
1	14033	2658	1
1	14033	2658	0
1	14047	2660	1
1	14047	2660	0
1	14055	2662	1
1	14061	2664	0
1	14115	2676	1
1	14115	2676	0
1	14155	2687	1
1	14155	2687	0
1	14166	2689	1
1	14166	2689	0
1	14202	2697	1
1	14202	2697	0
1	14237	2701	1
1	14237	2701	0
1	14284	2707	1
1	14284	2707	0
1	14346	2724	1
1	14346	2724	0
1	14347	2724	1
1	14356	2725	0
1	14363	2726	1
1	14364	2726	2
1	14366	2726	1
1	14372	2727	0
1	14389	2733	1
1	14389	2733	0
1	14407	2737	1
1	14407	2737	0
1	14455	2746	1
1	14455	2746	0
1	14460	2747	1
1	14462	2747	0
1	14471	2749	1
1	14471	2749	0
1	14501	2759	1
1	14501	2759	0
1	14527	2765	1
1	14527	2765	0
1	14565	2771	1
1	14565	2771	0
1	14582	2777	1
1	14582	2777	0
1	14590	2778	1
1	14606	2781	0
1	14727	2810	1
1	14727	2810	0
1	14740	2813	1
1	14740	2813	0
1	14745	2814	1
1	14746	2814	2
1	14748	2814	1
1	14754	2815	0
1	14767	2819	1
1	14767	2819	0
1	14803	2830	1
1	14803	2830	0
1	14823	2833	1
1	14823	2833	0
1	14850	2838	1
1	14850	2838	0
1	14851	2838	1
1	14860	2839	0